 Entering Gaussian System, Link 0=g16
 Input=M100033019_sp.gjf
 Output=M100033019_sp.log
 Initial command:
 /public/software/gauss/g16/l1.exe "/public/home/baiding/1101_v2_sp/tmp_M100033019_sp_1568608/Gau-4131180.inp" -scrdir="/public/home/baiding/1101_v2_sp/tmp_M100033019_sp_1568608/"
 Entering Link 1 = /public/software/gauss/g16/l1.exe PID=   4131181.
  
 Copyright (c) 1988,1990,1992,1993,1995,1998,2003,2009,2016,
            Gaussian, Inc.  All Rights Reserved.
  
 This is part of the Gaussian(R) 16 program.  It is based on
 the Gaussian(R) 09 system (copyright 2009, Gaussian, Inc.),
 the Gaussian(R) 03 system (copyright 2003, Gaussian, Inc.),
 the Gaussian(R) 98 system (copyright 1998, Gaussian, Inc.),
 the Gaussian(R) 94 system (copyright 1995, Gaussian, Inc.),
 the Gaussian 92(TM) system (copyright 1992, Gaussian, Inc.),
 the Gaussian 90(TM) system (copyright 1990, Gaussian, Inc.),
 the Gaussian 88(TM) system (copyright 1988, Gaussian, Inc.),
 the Gaussian 86(TM) system (copyright 1986, Carnegie Mellon
 University), and the Gaussian 82(TM) system (copyright 1983,
 Carnegie Mellon University). Gaussian is a federally registered
 trademark of Gaussian, Inc.
  
 This software contains proprietary and confidential information,
 including trade secrets, belonging to Gaussian, Inc.
  
 This software is provided under written license and may be
 used, copied, transmitted, or stored only in accord with that
 written license.
  
 The following legend is applicable only to US Government
 contracts under FAR:
  
                    RESTRICTED RIGHTS LEGEND
  
 Use, reproduction and disclosure by the US Government is
 subject to restrictions as set forth in subparagraphs (a)
 and (c) of the Commercial Computer Software - Restricted
 Rights clause in FAR 52.227-19.
  
 Gaussian, Inc.
 340 Quinnipiac St., Bldg. 40, Wallingford CT 06492
  
  
 ---------------------------------------------------------------
 Warning -- This program may not be used in any manner that
 competes with the business of Gaussian, Inc. or will provide
 assistance to any competitor of Gaussian, Inc.  The licensee
 of this program is prohibited from giving any competitor of
 Gaussian, Inc. access to this program.  By using this program,
 the user acknowledges that Gaussian, Inc. is engaged in the
 business of creating and licensing software in the field of
 computational chemistry and represents and warrants to the
 licensee that it is not a competitor of Gaussian, Inc. and that
 it will not use this program in any manner prohibited above.
 ---------------------------------------------------------------
  

 Cite this work as:
 Gaussian 16, Revision A.03,
 M. J. Frisch, G. W. Trucks, H. B. Schlegel, G. E. Scuseria, 
 M. A. Robb, J. R. Cheeseman, G. Scalmani, V. Barone, 
 G. A. Petersson, H. Nakatsuji, X. Li, M. Caricato, A. V. Marenich, 
 J. Bloino, B. G. Janesko, R. Gomperts, B. Mennucci, H. P. Hratchian, 
 J. V. Ortiz, A. F. Izmaylov, J. L. Sonnenberg, D. Williams-Young, 
 F. Ding, F. Lipparini, F. Egidi, J. Goings, B. Peng, A. Petrone, 
 T. Henderson, D. Ranasinghe, V. G. Zakrzewski, J. Gao, N. Rega, 
 G. Zheng, W. Liang, M. Hada, M. Ehara, K. Toyota, R. Fukuda, 
 J. Hasegawa, M. Ishida, T. Nakajima, Y. Honda, O. Kitao, H. Nakai, 
 T. Vreven, K. Throssell, J. A. Montgomery, Jr., J. E. Peralta, 
 F. Ogliaro, M. J. Bearpark, J. J. Heyd, E. N. Brothers, K. N. Kudin, 
 V. N. Staroverov, T. A. Keith, R. Kobayashi, J. Normand, 
 K. Raghavachari, A. P. Rendell, J. C. Burant, S. S. Iyengar, 
 J. Tomasi, M. Cossi, J. M. Millam, M. Klene, C. Adamo, R. Cammi, 
 J. W. Ochterski, R. L. Martin, K. Morokuma, O. Farkas, 
 J. B. Foresman, and D. J. Fox, Gaussian, Inc., Wallingford CT, 2016.
 
 ******************************************
 Gaussian 16:  ES64L-G16RevA.03 25-Dec-2016
                 6-Nov-2025 
 ******************************************
 %nprocshared=64
 Will use up to   64 processors via shared memory.
 %mem=230GB
 %chk=M100033019_sp.chk
 ----------------------------------------------
 #p M062X/DEF2TZVPP scrf=(solvent=water) em=GD3
 ----------------------------------------------
 1/38=1,172=1/1;
 2/12=2,17=6,18=5,40=1/2;
 3/5=44,7=202,11=2,25=1,30=1,70=2201,72=1,74=-55,124=31/1,2,3;
 4//1;
 5/5=2,38=5,53=1/2;
 6/7=2,8=2,9=2,10=2,28=1/1;
 99/5=1,9=1/99;
 Leave Link    1 at Thu Nov  6 06:58:41 2025, MaxMem= 30870077440 cpu:               8.9 elap:               0.1
 (Enter /public/software/gauss/g16/l101.exe)
 ---------------------------------
 Energy calculation for M100033019
 ---------------------------------
 Symbolic Z-matrix:
 Charge =  0 Multiplicity = 1
 C                    -4.67551  -2.4042   -0.02286 
 C                    -3.21448  -2.07636   0.03932 
 C                    -2.18746  -2.99101   0.1187 
 C                    -0.96317  -2.27544   0.17166 
 C                     0.33087  -2.75405   0.15973 
 C                     1.43478  -1.89393   0.08626 
 C                     2.8219   -2.18295  -0.03849 
 C                     3.43834  -3.49845  -0.04003 
 O                     2.83426  -4.56834   0.06903 
 C                     3.4947   -0.95123  -0.1622 
 C                     4.97068  -0.73584  -0.30137 
 C                     2.50024   0.05873  -0.10359 
 C                     2.75098   1.49164  -0.19623 
 C                     3.62828   2.09177  -1.07775 
 C                     3.7676    3.49377  -0.88536 
 C                     3.01014   3.95849   0.1559 
 S                     2.09811   2.69631   0.9095 
 N                     1.26659  -0.52803   0.04824 
 B                    -0.12468   0.18755   0.19333 
 F                    -0.29501   1.09876  -0.83784 
 F                    -0.14742   0.8247    1.44467 
 N                    -1.24596  -0.90877   0.14781 
 C                    -2.60175  -0.76976   0.07155 
 C                    -3.28289   0.5087    0.05652 
 C                    -2.93158   1.69582   0.67617 
 C                    -3.84727   2.75205   0.44228 
 C                    -4.89615   2.38194  -0.35932 
 S                    -4.79276   0.72403  -0.82951 
 H                    -5.10236  -2.20836  -1.01283 
 H                    -4.82136  -3.46625   0.18979 
 H                    -5.25598  -1.82902   0.70511 
 H                    -2.27546  -4.06906   0.13581 
 H                     0.50433  -3.82225   0.16196 
 H                     4.53679  -3.50253  -0.15043 
 H                     5.27855  -0.72607  -1.35355 
 H                     5.26863   0.22179   0.13249 
 H                     5.53625  -1.52689   0.19656 
 H                     4.14046   1.53882  -1.85594 
 H                     4.3985    4.12738  -1.49779 
 H                     2.91866   4.97415   0.51859 
 H                    -2.05127   1.78779   1.29613 
 H                    -3.73642   3.74735   0.85626 
 H                    -5.72765   2.9849   -0.70018 
 
 ITRead=  0  0  0  0  0  0  0  0  0  0  0  0  0  0  0  0  0  0  0  0
 ITRead=  0  0  0  0  0  0  0  0  0  0  0  0  0  0  0  0  0  0  0  0
 ITRead=  0  0  0
 MicOpt= -1 -1 -1 -1 -1 -1 -1 -1 -1 -1 -1 -1 -1 -1 -1 -1 -1 -1 -1 -1
 MicOpt= -1 -1 -1 -1 -1 -1 -1 -1 -1 -1 -1 -1 -1 -1 -1 -1 -1 -1 -1 -1
 MicOpt= -1 -1 -1
 NAtoms=     43 NQM=       43 NQMF=       0 NMMI=      0 NMMIF=      0
                NMic=       0 NMicF=      0.
                    Isotopes and Nuclear Properties:
 (Nuclear quadrupole moments (NQMom) in fm**2, nuclear magnetic moments (NMagM)
  in nuclear magnetons)

  Atom         1           2           3           4           5           6           7           8           9          10
 IAtWgt=          12          12          12          12          12          12          12          12          16          12
 AtmWgt=  12.0000000  12.0000000  12.0000000  12.0000000  12.0000000  12.0000000  12.0000000  12.0000000  15.9949146  12.0000000
 NucSpn=           0           0           0           0           0           0           0           0           0           0
 AtZEff=  -0.0000000  -0.0000000  -0.0000000  -0.0000000  -0.0000000  -0.0000000  -0.0000000  -0.0000000  -0.0000000  -0.0000000
 NQMom=    0.0000000   0.0000000   0.0000000   0.0000000   0.0000000   0.0000000   0.0000000   0.0000000   0.0000000   0.0000000
 NMagM=    0.0000000   0.0000000   0.0000000   0.0000000   0.0000000   0.0000000   0.0000000   0.0000000   0.0000000   0.0000000
 AtZNuc=   6.0000000   6.0000000   6.0000000   6.0000000   6.0000000   6.0000000   6.0000000   6.0000000   8.0000000   6.0000000

  Atom        11          12          13          14          15          16          17          18          19          20
 IAtWgt=          12          12          12          12          12          12          32          14          11          19
 AtmWgt=  12.0000000  12.0000000  12.0000000  12.0000000  12.0000000  12.0000000  31.9720718  14.0030740  11.0093053  18.9984033
 NucSpn=           0           0           0           0           0           0           0           2           3           1
 AtZEff=  -0.0000000  -0.0000000  -0.0000000  -0.0000000  -0.0000000  -0.0000000  -0.0000000  -0.0000000  -0.0000000  -0.0000000
 NQMom=    0.0000000   0.0000000   0.0000000   0.0000000   0.0000000   0.0000000   0.0000000   2.0440000   4.0590000   0.0000000
 NMagM=    0.0000000   0.0000000   0.0000000   0.0000000   0.0000000   0.0000000   0.0000000   0.4037610   2.6886370   2.6288670
 AtZNuc=   6.0000000   6.0000000   6.0000000   6.0000000   6.0000000   6.0000000  16.0000000   7.0000000   5.0000000   9.0000000

  Atom        21          22          23          24          25          26          27          28          29          30
 IAtWgt=          19          14          12          12          12          12          12          32           1           1
 AtmWgt=  18.9984033  14.0030740  12.0000000  12.0000000  12.0000000  12.0000000  12.0000000  31.9720718   1.0078250   1.0078250
 NucSpn=           1           2           0           0           0           0           0           0           1           1
 AtZEff=  -0.0000000  -0.0000000  -0.0000000  -0.0000000  -0.0000000  -0.0000000  -0.0000000  -0.0000000  -0.0000000  -0.0000000
 NQMom=    0.0000000   2.0440000   0.0000000   0.0000000   0.0000000   0.0000000   0.0000000   0.0000000   0.0000000   0.0000000
 NMagM=    2.6288670   0.4037610   0.0000000   0.0000000   0.0000000   0.0000000   0.0000000   0.0000000   2.7928460   2.7928460
 AtZNuc=   9.0000000   7.0000000   6.0000000   6.0000000   6.0000000   6.0000000   6.0000000  16.0000000   1.0000000   1.0000000

  Atom        31          32          33          34          35          36          37          38          39          40
 IAtWgt=           1           1           1           1           1           1           1           1           1           1
 AtmWgt=   1.0078250   1.0078250   1.0078250   1.0078250   1.0078250   1.0078250   1.0078250   1.0078250   1.0078250   1.0078250
 NucSpn=           1           1           1           1           1           1           1           1           1           1
 AtZEff=  -0.0000000  -0.0000000  -0.0000000  -0.0000000  -0.0000000  -0.0000000  -0.0000000  -0.0000000  -0.0000000  -0.0000000
 NQMom=    0.0000000   0.0000000   0.0000000   0.0000000   0.0000000   0.0000000   0.0000000   0.0000000   0.0000000   0.0000000
 NMagM=    2.7928460   2.7928460   2.7928460   2.7928460   2.7928460   2.7928460   2.7928460   2.7928460   2.7928460   2.7928460
 AtZNuc=   1.0000000   1.0000000   1.0000000   1.0000000   1.0000000   1.0000000   1.0000000   1.0000000   1.0000000   1.0000000

  Atom        41          42          43
 IAtWgt=           1           1           1
 AtmWgt=   1.0078250   1.0078250   1.0078250
 NucSpn=           1           1           1
 AtZEff=  -0.0000000  -0.0000000  -0.0000000
 NQMom=    0.0000000   0.0000000   0.0000000
 NMagM=    2.7928460   2.7928460   2.7928460
 AtZNuc=   1.0000000   1.0000000   1.0000000
 Leave Link  101 at Thu Nov  6 06:58:42 2025, MaxMem= 30870077440 cpu:               5.4 elap:               0.1
 (Enter /public/software/gauss/g16/l202.exe)
                          Input orientation:                          
 ---------------------------------------------------------------------
 Center     Atomic      Atomic             Coordinates (Angstroms)
 Number     Number       Type             X           Y           Z
 ---------------------------------------------------------------------
      1          6           0       -4.675510   -2.404202   -0.022859
      2          6           0       -3.214483   -2.076358    0.039320
      3          6           0       -2.187458   -2.991005    0.118703
      4          6           0       -0.963166   -2.275435    0.171663
      5          6           0        0.330869   -2.754054    0.159733
      6          6           0        1.434775   -1.893926    0.086257
      7          6           0        2.821896   -2.182952   -0.038485
      8          6           0        3.438343   -3.498446   -0.040030
      9          8           0        2.834257   -4.568339    0.069027
     10          6           0        3.494704   -0.951227   -0.162202
     11          6           0        4.970676   -0.735839   -0.301373
     12          6           0        2.500239    0.058725   -0.103589
     13          6           0        2.750983    1.491639   -0.196229
     14          6           0        3.628282    2.091771   -1.077746
     15          6           0        3.767596    3.493767   -0.885360
     16          6           0        3.010143    3.958490    0.155904
     17         16           0        2.098113    2.696308    0.909504
     18          7           0        1.266592   -0.528032    0.048239
     19          5           0       -0.124679    0.187553    0.193331
     20          9           0       -0.295009    1.098759   -0.837843
     21          9           0       -0.147423    0.824702    1.444670
     22          7           0       -1.245956   -0.908766    0.147814
     23          6           0       -2.601748   -0.769763    0.071545
     24          6           0       -3.282887    0.508698    0.056518
     25          6           0       -2.931578    1.695819    0.676167
     26          6           0       -3.847272    2.752051    0.442278
     27          6           0       -4.896148    2.381945   -0.359318
     28         16           0       -4.792764    0.724032   -0.829509
     29          1           0       -5.102357   -2.208359   -1.012830
     30          1           0       -4.821358   -3.466245    0.189794
     31          1           0       -5.255975   -1.829023    0.705109
     32          1           0       -2.275457   -4.069058    0.135810
     33          1           0        0.504325   -3.822248    0.161960
     34          1           0        4.536791   -3.502533   -0.150431
     35          1           0        5.278552   -0.726072   -1.353545
     36          1           0        5.268631    0.221790    0.132487
     37          1           0        5.536252   -1.526888    0.196564
     38          1           0        4.140459    1.538818   -1.855936
     39          1           0        4.398498    4.127383   -1.497789
     40          1           0        2.918663    4.974153    0.518592
     41          1           0       -2.051267    1.787791    1.296129
     42          1           0       -3.736422    3.747354    0.856259
     43          1           0       -5.727645    2.984897   -0.700177
 ---------------------------------------------------------------------
                    Distance matrix (angstroms):
                    1          2          3          4          5
     1  C    0.000000
     2  C    1.498649   0.000000
     3  C    2.560231   1.377556   0.000000
     4  C    3.719666   2.263973   1.419062   0.000000
     5  C    5.021909   3.611550   2.529783   1.379763   0.000000
     6  C    6.132526   4.653073   3.784866   2.429602   1.401366
     7  C    7.500686   6.037821   5.076543   3.792019   2.563331
     8  C    8.187324   6.803582   5.650870   4.573166   3.201628
     9  O    7.815915   6.542026   5.263846   4.437157   3.093026
    10  C    8.299575   6.805859   6.043721   4.662360   3.655637
    11  C    9.793360   8.301198   7.516723   6.148545   5.080711
    12  C    7.587088   6.102217   5.596854   4.185599   3.561914
    13  C    8.388113   6.955061   6.676936   5.302933   4.899956
    14  C    9.501554   8.089782   7.815941   6.458708   5.990518
    15  C   10.335182   8.979463   8.861325   7.535323   7.206843
    16  C    9.979232   8.670580   8.678244   7.392513   7.227501
    17  S    8.530327   7.194389   7.164985   5.885072   5.778560
    18  N    6.231665   4.741036   4.242837   2.835573   2.417268
    19  B    5.241564   3.833523   3.789968   2.601892   2.976862
    20  F    5.667779   4.401603   4.606790   3.584790   4.028778
    21  F    5.751785   4.449496   4.525434   3.449179   3.832404
    22  N    3.745304   2.291319   2.285387   1.395823   2.427263
    23  C    2.642119   1.443493   2.260039   2.227560   3.541953
    24  C    3.229657   2.586018   3.667663   3.625708   4.869850
    25  C    4.510001   3.836004   4.778159   4.460945   5.541808
    26  C    5.243022   4.886341   5.986850   5.802320   6.917650
    27  C    4.803029   4.781566   6.036066   6.118944   7.346401
    28  S    3.232689   3.329868   4.635539   4.966384   6.271148
    29  H    1.095717   2.165297   3.223281   4.305859   5.585036
    30  H    1.092899   2.129900   2.677375   4.037822   5.201304
    31  H    1.094398   2.161513   3.333147   4.348800   5.689107
    32  H    2.925265   2.204979   1.081774   2.222718   2.919374
    33  H    5.373612   4.110074   2.817540   2.132195   1.082188
    34  H    9.278421   7.883669   6.749046   5.644381   4.283247
    35  H   10.181856   8.711773   7.939694   6.609526   5.557183
    36  H   10.286200   8.789391   8.118836   6.713640   5.765231
    37  H   10.251727   8.769379   7.861641   6.542429   5.348206
    38  H    9.829999   8.411698   8.028763   6.686305   6.083145
    39  H   11.277174   9.940150   9.831547   8.516489   8.163771
    40  H   10.602111   9.357077   9.469748   8.230764   8.157858
    41  H    5.118514   4.226617   4.923593   4.354101   5.253030
    42  H    6.284614   5.903849   6.953327   6.665854   7.700410
    43  H    5.532462   5.699047   6.993918   7.150626   8.389314
                    6          7          8          9         10
     6  C    0.000000
     7  C    1.422393   0.000000
     8  C    2.569965   1.452768   0.000000
     9  O    3.018498   2.387841   1.233485   0.000000
    10  C    2.278974   1.408944   2.550770   3.684176   0.000000
    11  C    3.740858   2.603940   3.169912   4.403355   1.498083
    12  C    2.232510   2.265572   3.679340   4.642315   1.418591
    13  C    3.643385   3.678659   5.039624   6.066352   2.553796
    14  C    4.695972   4.472536   5.688889   6.804604   3.180550
    15  C    5.950910   5.816931   7.050818   8.171874   4.511696
    16  C    6.061139   6.147401   7.471790   8.529085   4.943816
    17  S    4.710414   5.022920   6.408807   7.350062   4.050127
    18  N    1.376734   2.272719   3.680714   4.333830   2.277688
    19  B    2.603059   3.788844   5.131878   5.602612   3.810926
    20  F    3.578027   4.596052   5.975677   6.536874   4.361291
    21  F    3.426306   4.479128   5.809618   6.314087   4.359019
    22  N    2.856685   4.266811   5.355781   5.481498   4.750976
    23  C    4.190164   5.605812   6.628790   6.631692   6.103630
    24  C    5.294320   6.672509   7.825692   7.949586   6.936495
    25  C    5.683247   6.975533   8.250407   8.535406   7.000487
    26  C    7.043570   8.310427   9.611531   9.918178   8.245258
    27  C    7.652594   8.972704  10.205130  10.404282   9.030797
    28  S    6.817226   8.188976   9.284596   9.326736   8.481387
    29  H    6.636336   7.983970   8.692193   8.350435   8.730029
    30  H    6.451520   7.753598   8.262961   7.735479   8.695177
    31  H    6.719622   8.119741   8.884445   8.565063   8.837258
    32  H    4.301102   5.437902   5.744913   5.134483   6.565397
    33  H    2.142404   2.845805   2.958734   2.448238   4.158150
    34  H    3.502305   2.166724   1.103990   2.020576   2.755947
    35  H    4.267497   3.144367   3.577394   4.770881   2.156874
    36  H    4.379137   3.434898   4.149683   5.373597   2.147004
    37  H    4.119344   2.802391   2.888640   4.070315   2.151283
    38  H    4.782946   4.346643   5.400418   6.535213   3.079945
    39  H    6.895580   6.666001   7.823057   8.973146   5.328500
    40  H    7.039840   7.179405   8.506883   9.553449   5.992114
    41  H    5.212612   6.426174   7.737276   8.110149   6.355057
    42  H    7.691438   8.887105  10.236318  10.627526   8.683496
    43  H    8.701819  10.011950  11.246549  11.443304  10.041624
                   11         12         13         14         15
    11  C    0.000000
    12  C    2.602597   0.000000
    13  C    3.146387   1.457634   0.000000
    14  C    3.224927   2.520861   1.380900   0.000000
    15  C    4.435990   3.743911   2.348812   1.421975   0.000000
    16  C    5.107790   3.941511   2.505297   2.321342   1.368917
    17  S    4.636537   2.853928   1.760714   2.579931   2.577722
    18  N    3.726345   1.374489   2.518383   3.702538   4.827162
    19  B    5.201925   2.644797   3.181482   4.396180   5.219620
    20  F    5.601874   3.071516   3.137529   4.054114   4.716257
    21  F    5.628400   3.161319   3.396780   4.714233   5.280182
    22  N    6.235237   3.877270   4.675022   5.853496   6.751700
    23  C    7.581677   5.171783   5.816990   6.951440   7.724111
    24  C    8.354535   5.802815   6.118631   7.180316   7.714083
    25  C    8.325513   5.726494   5.752761   6.801820   7.109846
    26  C    9.511814   6.916854   6.747837   7.657046   7.765242
    27  C   10.347857   7.756887   7.700510   8.559570   8.750619
    28  S    9.886097   7.359177   7.609099   8.535007   8.997462
    29  H   10.204924   7.985353   8.719620   9.732389  10.545452
    30  H   10.177440   8.131253   9.059248  10.192871  11.107108
    31  H   10.334043   8.023493   8.714963   9.873258  10.596533
    32  H    7.987986   6.316896   7.503113   8.618739   9.734352
    33  H    5.448751   4.372201   5.780412   6.802323   8.078978
    34  H    2.804574   4.102718   5.304051   5.742956   7.076722
    35  H    1.096334   3.146001   3.556153   3.277147   4.506576
    36  H    1.092733   2.783220   2.838859   2.766268   3.740983
    37  H    1.092509   3.438261   4.125956   4.284730   5.431913
    38  H    2.877497   2.819879   2.165063   1.083357   2.214243
    39  H    5.040806   4.701187   3.369794   2.216616   1.083779
    40  H    6.122672   4.972285   3.559071   3.370457   2.209822
    41  H    7.630754   5.066072   5.037504   6.163194   6.444254
    42  H    9.861678   7.309120   6.948554   7.792316   7.707647
    43  H   11.333887   8.753084   8.623857   9.406041   9.510670
                   16         17         18         19         20
    16  C    0.000000
    17  S    1.729975   0.000000
    18  N    4.814607   3.439415   0.000000
    19  B    4.903925   3.427471   1.571225   0.000000
    20  F    4.482145   3.366366   2.422847   1.386589   0.000000
    21  F    4.631605   2.971825   2.404027   1.404395   2.303639
    22  N    6.465650   4.975895   2.543181   1.568837   2.430222
    23  C    7.338720   5.899535   3.875956   2.658412   3.104739
    24  C    7.177268   5.870978   4.666116   3.177441   3.174188
    25  C    6.379216   5.133538   4.792123   3.222837   3.098419
    26  C    6.968619   5.963976   6.088170   4.527287   4.121972
    27  C    8.078390   7.115365   6.827403   5.280880   4.800628
    28  S    8.504006   7.375515   6.249312   4.808849   4.513346
    29  H   10.257125   8.921765   6.671797   5.654423   5.837657
    30  H   10.791675   9.293768   6.761381   5.950550   6.510233
    31  H   10.105723   8.637303   6.683408   5.537029   5.963539
    32  H    9.611425   8.093015   5.009256   4.769475   5.619298
    33  H    8.174292   6.752078   3.383170   4.058957   5.084767
    34  H    7.621769   6.745090   4.425079   5.955183   6.707512
    35  H    5.419339   5.191268   4.254414   5.694071   5.887320
    36  H    4.366262   4.096240   4.072548   5.393762   5.715304
    37  H    6.039226   5.492219   4.387449   5.914851   6.478242
    38  H    3.343640   3.627481   4.019560   4.921058   4.572039
    39  H    2.165815   3.624197   5.819959   6.232277   5.624687
    40  H    1.082350   2.452487   5.764079   5.681484   5.214047
    41  H    5.624048   4.265236   4.234201   2.736543   2.848341
    42  H    6.786105   5.928687   6.630382   5.114327   4.661369
    43  H    8.833442   7.994801   7.862579   6.325877   5.752391
                   21         22         23         24         25
    21  F    0.000000
    22  N    2.427658   0.000000
    23  C    3.232878   1.365031   0.000000
    24  C    3.443539   2.483269   1.448668   0.000000
    25  C    3.016780   3.147116   2.559971   1.384427   0.000000
    26  C    4.290495   4.500571   3.753924   2.345202   1.417330
    27  C    5.313169   4.940634   3.922139   2.506907   2.324335
    28  S    5.173125   4.025051   2.800692   1.763843   2.583688
    29  H    6.307942   4.231769   3.081959   3.440403   4.775730
    30  H    6.467813   4.396130   3.494520   4.264367   5.518581
    31  H    5.804008   4.151831   2.927175   3.127089   4.222342
    32  H    5.494591   3.323772   3.316013   4.687969   5.827202
    33  H    4.864593   3.398832   4.355861   5.754232   6.520652
    34  H    6.573520   6.344820   7.646963   8.790914   9.136885
    35  H    6.298898   6.697512   8.008241   8.764198   8.797245
    36  H    5.605263   6.611977   7.932828   8.556667   8.349358
    37  H    6.276297   6.810492   8.174100   9.052096   9.073037
    38  H    5.458012   6.246531   7.382553   7.734642   7.513315
    39  H    6.342804   7.741490   8.686098   8.632174   8.023005
    40  H    5.241798   7.217358   7.979183   7.655914   6.708027
    41  H    2.138744   3.039502   2.888549   2.165549   1.080629
    42  H    4.665730   5.327642   4.723093   3.366626   2.211109
    43  H    6.356547   5.997102   4.946136   3.561038   3.372541
                   26         27         28         29         30
    26  C    0.000000
    27  C    1.371013   0.000000
    28  S    2.573763   1.726396   0.000000
    29  H    5.319609   4.641173   2.954382   0.000000
    30  H    6.299190   5.874389   4.312565   1.762822   0.000000
    31  H    4.799975   4.358295   3.014582   1.766015   1.770575
    32  H    7.006572   6.980588   5.499308   3.573925   2.616851
    33  H    7.889004   8.241896   7.050590   5.951441   5.337641
    34  H   10.476814  11.119850  10.264774   9.763800   9.364402
    35  H    9.929904  10.685166  10.188661  10.491736  10.578215
    36  H    9.465616  10.403407  10.119751  10.713299  10.743033
    37  H   10.316017  11.154504  10.621113  10.728795  10.537611
    38  H    8.399855   9.198423   9.028837  10.009086  10.466606
    39  H    8.581848   9.525393   9.823884  11.429919  12.063037
    40  H    7.121898   8.280190   8.907694  10.875224  11.456716
    41  H    2.210089   3.344678   3.628461   5.532599   6.041711
    42  H    1.083649   2.164933   3.619136   6.389819   7.325112
    43  H    2.212515   1.082184   2.449947   5.240100   6.575001
                   31         32         33         34         35
    31  H    0.000000
    32  H    3.771650   0.000000
    33  H    6.119560   2.790840   0.000000
    34  H    9.971502   6.841755   4.057165   0.000000
    35  H   10.790311   8.393854   5.888659   3.115514   0.000000
    36  H   10.737833   8.678978   6.249298   3.806076   1.762621
    37  H   10.808426   8.215176   5.530838   2.241094   1.763676
    38  H   10.305061   8.750960   6.784866   5.336764   2.584063
    39  H   11.555967  10.695418   9.006441   7.749201   4.934706
    40  H   10.636856  10.435759   9.128685   8.655642   6.447212
    41  H    4.868347   5.974888   6.268168   8.572198   8.189415
    42  H    5.781684   7.984345   8.704301  11.046282  10.303617
    43  H    5.036976   7.897769   9.269194  12.155148  11.633338
                   36         37         38         39         40
    36  H    0.000000
    37  H    1.770198   0.000000
    38  H    2.638401   3.944559   0.000000
    39  H    4.320716   6.011331   2.625933   0.000000
    40  H    5.315673   7.015626   4.351172   2.640591   0.000000
    41  H    7.575442   8.352639   6.952336   7.408045   5.954634
    42  H    9.697651  10.688092   8.618520   8.477198   6.775634
    43  H   11.368649  12.166993  10.040239  10.221557   8.955511
                   41         42         43
    41  H    0.000000
    42  H    2.621664   0.000000
    43  H    4.351328   2.639849   0.000000
 Stoichiometry    C20H15BF2N2OS2
 Framework group  C1[X(C20H15BF2N2OS2)]
 Deg. of freedom   123
 Full point group                 C1      NOp   1
 Largest Abelian subgroup         C1      NOp   1
 Largest concise Abelian subgroup C1      NOp   1
                         Standard orientation:                         
 ---------------------------------------------------------------------
 Center     Atomic      Atomic             Coordinates (Angstroms)
 Number     Number       Type             X           Y           Z
 ---------------------------------------------------------------------
      1          6           0        4.675510    2.404202   -0.022859
      2          6           0        3.214483    2.076358    0.039320
      3          6           0        2.187458    2.991005    0.118703
      4          6           0        0.963166    2.275435    0.171663
      5          6           0       -0.330869    2.754054    0.159733
      6          6           0       -1.434775    1.893926    0.086257
      7          6           0       -2.821896    2.182952   -0.038485
      8          6           0       -3.438343    3.498446   -0.040030
      9          8           0       -2.834257    4.568339    0.069027
     10          6           0       -3.494704    0.951227   -0.162202
     11          6           0       -4.970676    0.735839   -0.301373
     12          6           0       -2.500239   -0.058725   -0.103589
     13          6           0       -2.750983   -1.491639   -0.196229
     14          6           0       -3.628282   -2.091771   -1.077746
     15          6           0       -3.767596   -3.493767   -0.885360
     16          6           0       -3.010143   -3.958490    0.155904
     17         16           0       -2.098113   -2.696308    0.909504
     18          7           0       -1.266592    0.528032    0.048239
     19          5           0        0.124679   -0.187553    0.193331
     20          9           0        0.295009   -1.098759   -0.837843
     21          9           0        0.147423   -0.824702    1.444670
     22          7           0        1.245956    0.908766    0.147814
     23          6           0        2.601748    0.769763    0.071545
     24          6           0        3.282887   -0.508698    0.056518
     25          6           0        2.931578   -1.695819    0.676167
     26          6           0        3.847272   -2.752051    0.442278
     27          6           0        4.896148   -2.381945   -0.359318
     28         16           0        4.792764   -0.724032   -0.829509
     29          1           0        5.102357    2.208359   -1.012830
     30          1           0        4.821358    3.466245    0.189794
     31          1           0        5.255975    1.829023    0.705109
     32          1           0        2.275457    4.069058    0.135810
     33          1           0       -0.504325    3.822248    0.161960
     34          1           0       -4.536791    3.502533   -0.150431
     35          1           0       -5.278552    0.726072   -1.353545
     36          1           0       -5.268631   -0.221790    0.132487
     37          1           0       -5.536252    1.526888    0.196564
     38          1           0       -4.140459   -1.538818   -1.855936
     39          1           0       -4.398498   -4.127383   -1.497789
     40          1           0       -2.918663   -4.974153    0.518592
     41          1           0        2.051267   -1.787791    1.296129
     42          1           0        3.736422   -3.747354    0.856259
     43          1           0        5.727645   -2.984897   -0.700177
 ---------------------------------------------------------------------
 Rotational constants (GHZ):           0.2311295           0.1253505           0.0854127
 Leave Link  202 at Thu Nov  6 06:58:42 2025, MaxMem= 30870077440 cpu:               0.3 elap:               0.0
 (Enter /public/software/gauss/g16/l301.exe)
 Standard basis: def2TZVPP (5D, 7F)
 Ernie: Thresh=  0.10000D-02 Tol=  0.10000D-05 Strict=F.
 There are  1257 symmetry adapted cartesian basis functions of A   symmetry.
 There are  1100 symmetry adapted basis functions of A   symmetry.
  1100 basis functions,  1719 primitive gaussians,  1257 cartesian basis functions
   106 alpha electrons      106 beta electrons
       nuclear repulsion energy      2891.3730222835 Hartrees.
 IExCor= 4336 DFT=T Ex+Corr=M062X ExCW=0 ScaHFX=  0.540000
 ScaDFX=  1.000000  1.000000  1.000000  1.000000 ScalE2=  1.000000  1.000000
 IRadAn=      5 IRanWt=     -1 IRanGd=            0 ICorTp=0 IEmpDi=131
 NAtoms=   43 NActive=   43 NUniq=   43 SFac= 1.00D+00 NAtFMM=   60 NAOKFM=F Big=F
 Integral buffers will be    131072 words long.
 Raffenetti 2 integral format.
 Two-electron integral symmetry is turned on.
 R6Disp:  Grimme-D3 Dispersion energy=       -0.0032085017 Hartrees.
 Nuclear repulsion after empirical dispersion term =     2891.3698137818 Hartrees.
 ------------------------------------------------------------------------------
 Polarizable Continuum Model (PCM)
 =================================
 Model                : PCM.
 Atomic radii         : UFF (Universal Force Field).
 Polarization charges : Total charges.
 Charge compensation  : None.
 Solution method      : On-the-fly selection.
 Cavity type          : Scaled VdW (van der Waals Surface) (Alpha=1.100).
 Cavity algorithm     : GePol (No added spheres)
                        Default sphere list used, NSphG=   43.
                        Lebedev-Laikov grids with approx.  5.0 points / Ang**2.
                        Smoothing algorithm: York/Karplus (Gamma=1.0000).
                        Polarization charges: spherical gaussians, with
                                              point-specific exponents (IZeta= 3).
                        Self-potential: point-specific (ISelfS= 7).
                        Self-field    : sphere-specific E.n sum rule (ISelfD= 2).
 Solvent              : Water, Eps=  78.355300 Eps(inf)=   1.777849
 ------------------------------------------------------------------------------
 GePol: Number of generator spheres                  =      43
 GePol: Total number of spheres                      =      43
 GePol: Number of exposed spheres                    =      43 (100.00%)
 GePol: Number of points                             =    3417
 GePol: Average weight of points                     =       0.13
 GePol: Minimum weight of points                     =   0.52D-09
 GePol: Maximum weight of points                     =    0.20577
 GePol: Number of points with low weight             =     213
 GePol: Fraction of low-weight points (<1% of avg)   =       6.23%
 GePol: Cavity surface area                          =    431.241 Ang**2
 GePol: Cavity volume                                =    498.357 Ang**3
 Leave Link  301 at Thu Nov  6 06:58:42 2025, MaxMem= 30870077440 cpu:               3.8 elap:               0.1
 (Enter /public/software/gauss/g16/l302.exe)
 NPDir=0 NMtPBC=     1 NCelOv=     1 NCel=       1 NClECP=     1 NCelD=      1
         NCelK=      1 NCelE2=     1 NClLst=     1 CellRange=     0.0.
 One-electron integrals computed using PRISM.
 One-electron integral symmetry used in STVInt
   1 Symmetry operations used in ECPInt.
 ECPInt:  NShTT=   81810 NPrTT=  241852 LenC2=   65298 LenP2D=  134547.
 LDataN:  DoStor=T MaxTD1= 6 Len=  172
 NBasis=  1100 RedAO= T EigKep=  6.45D-06  NBF=  1100
 NBsUse=  1100 1.00D-06 EigRej= -1.00D+00 NBFU=  1100
 Precomputing XC quadrature grid using
 IXCGrd= 4 IRadAn=           5 IRanWt=          -1 IRanGd=           0 AccXCQ= 0.00D+00.
 Generated NRdTot=       0 NPtTot=           0 NUsed=           0 NTot=          32
 NSgBfM=  1230  1223  1224  1227  1230 MxSgAt=    43 MxSgA2=    43.
 Leave Link  302 at Thu Nov  6 06:58:44 2025, MaxMem= 30870077440 cpu:             175.3 elap:               2.8
 (Enter /public/software/gauss/g16/l303.exe)
 DipDrv:  MaxL=1.
 Leave Link  303 at Thu Nov  6 06:58:45 2025, MaxMem= 30870077440 cpu:              11.3 elap:               0.2
 (Enter /public/software/gauss/g16/l401.exe)
 ExpMin= 6.06D-02 ExpMax= 6.07D+04 ExpMxC= 2.07D+03 IAcc=3 IRadAn=         5 AccDes= 0.00D+00
 Harris functional with IExCor= 1009 and IRadAn=       5 diagonalized for initial guess.
 HarFok:  IExCor= 1009 AccDes= 0.00D+00 IRadAn=         5 IDoV= 1 UseB2=F ITyADJ=14
 ICtDFT=  3500011 ScaDFX=  1.000000  1.000000  1.000000  1.000000
 FoFCou: FMM=F IPFlag=           0 FMFlag=      100000 FMFlg1=           0
         NFxFlg=           0 DoJE=T BraDBF=F KetDBF=T FulRan=T
         wScrn=  0.000000 ICntrl=       500 IOpCl=  0 I1Cent=   200000004 NGrid=           0
         NMat0=    1 NMatS0=      1 NMatT0=    0 NMatD0=    1 NMtDS0=    0 NMtDT0=    0
 Petite list used in FoFCou.
 Harris En= -1975.99836517120    
 JPrj=0 DoOrth=F DoCkMO=F.
 Leave Link  401 at Thu Nov  6 06:58:49 2025, MaxMem= 30870077440 cpu:             279.5 elap:               4.4
 (Enter /public/software/gauss/g16/l502.exe)
 Integral symmetry usage will be decided dynamically.
 Closed shell SCF:
 Using DIIS extrapolation, IDIIS=  1040.
 NGot= 30870077440 LenX= 30866826343 LenY= 30865245037
 Requested convergence on RMS density matrix=1.00D-08 within 128 cycles.
 Requested convergence on MAX density matrix=1.00D-06.
 Requested convergence on             energy=1.00D-06.
 No special actions if energy rises.
 Fock matrices will be formed incrementally for  20 cycles.

 Cycle   1  Pass 1  IDiag  1:
 FoFJK:  IHMeth= 1 ICntrl=       0 DoSepK=F KAlg= 0 I1Cent=           0 FoldK=F
 IRaf= 720000000 NMat=       1 IRICut=       1 DoRegI=T DoRafI=F ISym2E= 0 IDoP0=0 IntGTp=1.
 FoFCou: FMM=F IPFlag=           0 FMFlag=      100000 FMFlg1=           0
         NFxFlg=           0 DoJE=F BraDBF=F KetDBF=F FulRan=T
         wScrn=  0.000000 ICntrl=         0 IOpCl=  0 I1Cent=           0 NGrid=           0
         NMat0=    1 NMatS0=      1 NMatT0=    0 NMatD0=    1 NMtDS0=    0 NMtDT0=    0
 Symmetry not used in FoFCou.
 Inv3:  Mode=1 IEnd=    35027667.
 Iteration    1 A*A^-1 deviation from unit magnitude is 6.22D-15 for   3417.
 Iteration    1 A*A^-1 deviation from orthogonality  is 4.01D-15 for   3409   1480.
 Iteration    1 A^-1*A deviation from unit magnitude is 6.11D-15 for   3417.
 Iteration    1 A^-1*A deviation from orthogonality  is 3.13D-15 for   2051   1524.
 E= -1976.21064550768    
 DIIS: error= 1.29D-02 at cycle   1 NSaved=   1.
 NSaved= 1 IEnMin= 1 EnMin= -1976.21064550768     IErMin= 1 ErrMin= 1.29D-02
 ErrMax= 1.29D-02  0.00D+00 EMaxC= 1.00D-01 BMatC= 9.89D-01 BMatP= 9.89D-01
 IDIUse=3 WtCom= 8.71D-01 WtEn= 1.29D-01
 Coeff-Com:  0.100D+01
 Coeff-En:   0.100D+01
 Coeff:      0.100D+01
 Gap=     0.160 Goal=   None    Shift=    0.000
 GapD=    0.160 DampG=1.000 DampE=0.500 DampFc=0.5000 IDamp=-1.
 Damping current iteration by 5.00D-01
 RMSDP=2.39D-03 MaxDP=4.35D-01              OVMax= 2.89D-01

 Cycle   2  Pass 1  IDiag  1:
 RMSU=  1.19D-03    CP:  9.94D-01
 E= -1976.57501216752     Delta-E=       -0.364366659840 Rises=F Damp=T
 DIIS: error= 3.68D-03 at cycle   2 NSaved=   2.
 NSaved= 2 IEnMin= 2 EnMin= -1976.57501216752     IErMin= 2 ErrMin= 3.68D-03
 ErrMax= 3.68D-03  0.00D+00 EMaxC= 1.00D-01 BMatC= 8.48D-02 BMatP= 9.89D-01
 IDIUse=3 WtCom= 9.63D-01 WtEn= 3.68D-02
 Coeff-Com: -0.328D-01 0.103D+01
 Coeff-En:   0.186D-01 0.981D+00
 Coeff:     -0.309D-01 0.103D+01
 Gap=     0.149 Goal=   None    Shift=    0.000
 RMSDP=9.06D-04 MaxDP=1.49D-01 DE=-3.64D-01 OVMax= 2.12D-01

 Cycle   3  Pass 1  IDiag  1:
 RMSU=  8.66D-04    CP:  9.78D-01  7.90D-01
 E= -1976.95796503415     Delta-E=       -0.382952866631 Rises=F Damp=F
 DIIS: error= 2.67D-03 at cycle   3 NSaved=   3.
 NSaved= 3 IEnMin= 3 EnMin= -1976.95796503415     IErMin= 3 ErrMin= 2.67D-03
 ErrMax= 2.67D-03  0.00D+00 EMaxC= 1.00D-01 BMatC= 3.35D-02 BMatP= 8.48D-02
 IDIUse=3 WtCom= 9.73D-01 WtEn= 2.67D-02
 Coeff-Com: -0.871D-01 0.396D+00 0.691D+00
 Coeff-En:   0.000D+00 0.000D+00 0.100D+01
 Coeff:     -0.848D-01 0.386D+00 0.699D+00
 Gap=     0.141 Goal=   None    Shift=    0.000
 RMSDP=2.73D-04 MaxDP=2.99D-02 DE=-3.83D-01 OVMax= 5.11D-02

 Cycle   4  Pass 1  IDiag  1:
 RMSU=  2.27D-04    CP:  9.79D-01  9.11D-01  9.47D-01
 E= -1976.98486627991     Delta-E=       -0.026901245765 Rises=F Damp=F
 DIIS: error= 1.14D-03 at cycle   4 NSaved=   4.
 NSaved= 4 IEnMin= 4 EnMin= -1976.98486627991     IErMin= 4 ErrMin= 1.14D-03
 ErrMax= 1.14D-03  0.00D+00 EMaxC= 1.00D-01 BMatC= 6.47D-03 BMatP= 3.35D-02
 IDIUse=3 WtCom= 9.89D-01 WtEn= 1.14D-02
 Coeff-Com: -0.341D-01 0.873D-01 0.354D+00 0.592D+00
 Coeff-En:   0.000D+00 0.000D+00 0.923D-01 0.908D+00
 Coeff:     -0.337D-01 0.863D-01 0.351D+00 0.596D+00
 Gap=     0.140 Goal=   None    Shift=    0.000
 RMSDP=1.18D-04 MaxDP=1.69D-02 DE=-2.69D-02 OVMax= 1.80D-02

 Cycle   5  Pass 1  IDiag  1:
 RMSU=  8.04D-05    CP:  9.77D-01  8.58D-01  9.93D-01  8.09D-01
 E= -1976.99037012217     Delta-E=       -0.005503842252 Rises=F Damp=F
 DIIS: error= 2.62D-04 at cycle   5 NSaved=   5.
 NSaved= 5 IEnMin= 5 EnMin= -1976.99037012217     IErMin= 5 ErrMin= 2.62D-04
 ErrMax= 2.62D-04  0.00D+00 EMaxC= 1.00D-01 BMatC= 3.63D-04 BMatP= 6.47D-03
 IDIUse=3 WtCom= 9.97D-01 WtEn= 2.62D-03
 Coeff-Com: -0.897D-02 0.148D-01 0.125D+00 0.277D+00 0.592D+00
 Coeff-En:   0.000D+00 0.000D+00 0.000D+00 0.000D+00 0.100D+01
 Coeff:     -0.895D-02 0.147D-01 0.125D+00 0.277D+00 0.593D+00
 Gap=     0.142 Goal=   None    Shift=    0.000
 RMSDP=2.90D-05 MaxDP=3.70D-03 DE=-5.50D-03 OVMax= 5.48D-03

 Cycle   6  Pass 1  IDiag  1:
 RMSU=  2.52D-05    CP:  9.77D-01  8.66D-01  9.94D-01  8.23D-01  8.70D-01
 E= -1976.99071915577     Delta-E=       -0.000349033602 Rises=F Damp=F
 DIIS: error= 1.03D-04 at cycle   6 NSaved=   6.
 NSaved= 6 IEnMin= 6 EnMin= -1976.99071915577     IErMin= 6 ErrMin= 1.03D-04
 ErrMax= 1.03D-04  0.00D+00 EMaxC= 1.00D-01 BMatC= 2.80D-05 BMatP= 3.63D-04
 IDIUse=3 WtCom= 9.99D-01 WtEn= 1.03D-03
 Coeff-Com:  0.231D-02-0.840D-02-0.117D-02 0.189D-01 0.186D+00 0.803D+00
 Coeff-En:   0.000D+00 0.000D+00 0.000D+00 0.000D+00 0.000D+00 0.100D+01
 Coeff:      0.231D-02-0.839D-02-0.117D-02 0.188D-01 0.186D+00 0.803D+00
 Gap=     0.142 Goal=   None    Shift=    0.000
 RMSDP=1.82D-05 MaxDP=1.86D-03 DE=-3.49D-04 OVMax= 3.26D-03

 Cycle   7  Pass 1  IDiag  1:
 RMSU=  9.69D-06    CP:  9.77D-01  8.59D-01  1.00D+00  8.43D-01  9.89D-01
                    CP:  1.16D+00
 E= -1976.99076730316     Delta-E=       -0.000048147388 Rises=F Damp=F
 DIIS: error= 5.13D-05 at cycle   7 NSaved=   7.
 NSaved= 7 IEnMin= 7 EnMin= -1976.99076730316     IErMin= 7 ErrMin= 5.13D-05
 ErrMax= 5.13D-05  0.00D+00 EMaxC= 1.00D-01 BMatC= 5.78D-06 BMatP= 2.80D-05
 IDIUse=1 WtCom= 1.00D+00 WtEn= 0.00D+00
 Coeff-Com:  0.243D-02-0.583D-02-0.186D-01-0.364D-01-0.313D-01 0.304D+00
 Coeff-Com:  0.785D+00
 Coeff:      0.243D-02-0.583D-02-0.186D-01-0.364D-01-0.313D-01 0.304D+00
 Coeff:      0.785D+00
 Gap=     0.142 Goal=   None    Shift=    0.000
 RMSDP=7.32D-06 MaxDP=5.19D-04 DE=-4.81D-05 OVMax= 1.68D-03

 Cycle   8  Pass 1  IDiag  1:
 RMSU=  3.64D-06    CP:  9.77D-01  8.57D-01  1.00D+00  8.52D-01  1.02D+00
                    CP:  1.32D+00  1.20D+00
 E= -1976.99077830031     Delta-E=       -0.000010997156 Rises=F Damp=F
 DIIS: error= 2.27D-05 at cycle   8 NSaved=   8.
 NSaved= 8 IEnMin= 8 EnMin= -1976.99077830031     IErMin= 8 ErrMin= 2.27D-05
 ErrMax= 2.27D-05  0.00D+00 EMaxC= 1.00D-01 BMatC= 1.21D-06 BMatP= 5.78D-06
 IDIUse=1 WtCom= 1.00D+00 WtEn= 0.00D+00
 Coeff-Com:  0.765D-03-0.143D-02-0.741D-02-0.185D-01-0.400D-01 0.121D-01
 Coeff-Com:  0.358D+00 0.696D+00
 Coeff:      0.765D-03-0.143D-02-0.741D-02-0.185D-01-0.400D-01 0.121D-01
 Coeff:      0.358D+00 0.696D+00
 Gap=     0.142 Goal=   None    Shift=    0.000
 RMSDP=2.89D-06 MaxDP=3.12D-04 DE=-1.10D-05 OVMax= 5.68D-04

 Cycle   9  Pass 1  IDiag  1:
 RMSU=  1.63D-06    CP:  9.77D-01  8.56D-01  1.00D+00  8.53D-01  1.04D+00
                    CP:  1.35D+00  1.33D+00  1.05D+00
 E= -1976.99078016018     Delta-E=       -0.000001859866 Rises=F Damp=F
 DIIS: error= 7.35D-06 at cycle   9 NSaved=   9.
 NSaved= 9 IEnMin= 9 EnMin= -1976.99078016018     IErMin= 9 ErrMin= 7.35D-06
 ErrMax= 7.35D-06  0.00D+00 EMaxC= 1.00D-01 BMatC= 1.99D-07 BMatP= 1.21D-06
 IDIUse=1 WtCom= 1.00D+00 WtEn= 0.00D+00
 Coeff-Com:  0.188D-04 0.138D-03-0.644D-03-0.325D-02-0.134D-01-0.397D-01
 Coeff-Com:  0.501D-01 0.325D+00 0.682D+00
 Coeff:      0.188D-04 0.138D-03-0.644D-03-0.325D-02-0.134D-01-0.397D-01
 Coeff:      0.501D-01 0.325D+00 0.682D+00
 Gap=     0.142 Goal=   None    Shift=    0.000
 RMSDP=1.01D-06 MaxDP=6.63D-05 DE=-1.86D-06 OVMax= 2.45D-04

 Cycle  10  Pass 1  IDiag  1:
 RMSU=  5.28D-07    CP:  9.77D-01  8.56D-01  1.00D+00  8.53D-01  1.04D+00
                    CP:  1.36D+00  1.38D+00  1.19D+00  1.06D+00
 E= -1976.99078045491     Delta-E=       -0.000000294733 Rises=F Damp=F
 DIIS: error= 3.21D-06 at cycle  10 NSaved=  10.
 NSaved=10 IEnMin=10 EnMin= -1976.99078045491     IErMin=10 ErrMin= 3.21D-06
 ErrMax= 3.21D-06  0.00D+00 EMaxC= 1.00D-01 BMatC= 2.61D-08 BMatP= 1.99D-07
 IDIUse=1 WtCom= 1.00D+00 WtEn= 0.00D+00
 Coeff-Com: -0.116D-03 0.304D-03 0.100D-02 0.178D-02 0.360D-03-0.217D-01
 Coeff-Com: -0.401D-01 0.202D-01 0.280D+00 0.758D+00
 Coeff:     -0.116D-03 0.304D-03 0.100D-02 0.178D-02 0.360D-03-0.217D-01
 Coeff:     -0.401D-01 0.202D-01 0.280D+00 0.758D+00
 Gap=     0.142 Goal=   None    Shift=    0.000
 RMSDP=4.85D-07 MaxDP=3.78D-05 DE=-2.95D-07 OVMax= 1.11D-04

 Cycle  11  Pass 1  IDiag  1:
 RMSU=  1.99D-07    CP:  9.77D-01  8.56D-01  1.00D+00  8.53D-01  1.04D+00
                    CP:  1.37D+00  1.41D+00  1.24D+00  1.19D+00  1.11D+00
 E= -1976.99078049706     Delta-E=       -0.000000042152 Rises=F Damp=F
 DIIS: error= 1.02D-06 at cycle  11 NSaved=  11.
 NSaved=11 IEnMin=11 EnMin= -1976.99078049706     IErMin=11 ErrMin= 1.02D-06
 ErrMax= 1.02D-06  0.00D+00 EMaxC= 1.00D-01 BMatC= 3.32D-09 BMatP= 2.61D-08
 IDIUse=1 WtCom= 1.00D+00 WtEn= 0.00D+00
 Coeff-Com: -0.475D-04 0.996D-04 0.512D-03 0.123D-02 0.170D-02-0.416D-02
 Coeff-Com: -0.212D-01-0.299D-01 0.296D-01 0.320D+00 0.703D+00
 Coeff:     -0.475D-04 0.996D-04 0.512D-03 0.123D-02 0.170D-02-0.416D-02
 Coeff:     -0.212D-01-0.299D-01 0.296D-01 0.320D+00 0.703D+00
 Gap=     0.142 Goal=   None    Shift=    0.000
 RMSDP=1.35D-07 MaxDP=9.50D-06 DE=-4.22D-08 OVMax= 3.00D-05

 Cycle  12  Pass 1  IDiag  1:
 RMSU=  8.33D-08    CP:  9.77D-01  8.56D-01  1.00D+00  8.53D-01  1.05D+00
                    CP:  1.37D+00  1.41D+00  1.25D+00  1.23D+00  1.20D+00
                    CP:  1.05D+00
 E= -1976.99078050173     Delta-E=       -0.000000004671 Rises=F Damp=F
 DIIS: error= 2.74D-07 at cycle  12 NSaved=  12.
 NSaved=12 IEnMin=12 EnMin= -1976.99078050173     IErMin=12 ErrMin= 2.74D-07
 ErrMax= 2.74D-07  0.00D+00 EMaxC= 1.00D-01 BMatC= 2.52D-10 BMatP= 3.32D-09
 IDIUse=1 WtCom= 1.00D+00 WtEn= 0.00D+00
 Coeff-Com: -0.443D-05 0.475D-05 0.738D-04 0.255D-03 0.519D-03 0.512D-03
 Coeff-Com: -0.360D-02-0.120D-01-0.168D-01 0.429D-01 0.228D+00 0.760D+00
 Coeff:     -0.443D-05 0.475D-05 0.738D-04 0.255D-03 0.519D-03 0.512D-03
 Coeff:     -0.360D-02-0.120D-01-0.168D-01 0.429D-01 0.228D+00 0.760D+00
 Gap=     0.142 Goal=   None    Shift=    0.000
 RMSDP=4.06D-08 MaxDP=3.24D-06 DE=-4.67D-09 OVMax= 1.39D-05

 Cycle  13  Pass 1  IDiag  1:
 RMSU=  2.78D-08    CP:  9.77D-01  8.56D-01  1.00D+00  8.53D-01  1.05D+00
                    CP:  1.37D+00  1.41D+00  1.25D+00  1.23D+00  1.23D+00
                    CP:  1.14D+00  1.09D+00
 E= -1976.99078050183     Delta-E=       -0.000000000101 Rises=F Damp=F
 DIIS: error= 1.38D-07 at cycle  13 NSaved=  13.
 NSaved=13 IEnMin=13 EnMin= -1976.99078050183     IErMin=13 ErrMin= 1.38D-07
 ErrMax= 1.38D-07  0.00D+00 EMaxC= 1.00D-01 BMatC= 7.03D-11 BMatP= 2.52D-10
 IDIUse=1 WtCom= 1.00D+00 WtEn= 0.00D+00
 Coeff-Com:  0.491D-05-0.122D-04-0.461D-04-0.665D-04-0.169D-04 0.812D-03
 Coeff-Com:  0.153D-02-0.662D-03-0.131D-01-0.290D-01-0.703D-02 0.353D+00
 Coeff-Com:  0.695D+00
 Coeff:      0.491D-05-0.122D-04-0.461D-04-0.665D-04-0.169D-04 0.812D-03
 Coeff:      0.153D-02-0.662D-03-0.131D-01-0.290D-01-0.703D-02 0.353D+00
 Coeff:      0.695D+00
 Gap=     0.142 Goal=   None    Shift=    0.000
 RMSDP=2.21D-08 MaxDP=1.86D-06 DE=-1.01D-10 OVMax= 9.99D-06

 Cycle  14  Pass 1  IDiag  1:
 RMSU=  1.18D-08    CP:  9.77D-01  8.56D-01  1.00D+00  8.53D-01  1.05D+00
                    CP:  1.37D+00  1.41D+00  1.26D+00  1.24D+00  1.24D+00
                    CP:  1.18D+00  1.23D+00  1.19D+00
 E= -1976.99078050210     Delta-E=       -0.000000000267 Rises=F Damp=F
 DIIS: error= 7.26D-08 at cycle  14 NSaved=  14.
 NSaved=14 IEnMin=14 EnMin= -1976.99078050210     IErMin=14 ErrMin= 7.26D-08
 ErrMax= 7.26D-08  0.00D+00 EMaxC= 1.00D-01 BMatC= 1.46D-11 BMatP= 7.03D-11
 IDIUse=1 WtCom= 1.00D+00 WtEn= 0.00D+00
 Coeff-Com:  0.238D-05-0.488D-05-0.324D-04-0.735D-04-0.112D-03 0.203D-03
 Coeff-Com:  0.132D-02 0.255D-02-0.204D-02-0.192D-01-0.500D-01-0.132D-01
 Coeff-Com:  0.311D+00 0.770D+00
 Coeff:      0.238D-05-0.488D-05-0.324D-04-0.735D-04-0.112D-03 0.203D-03
 Coeff:      0.132D-02 0.255D-02-0.204D-02-0.192D-01-0.500D-01-0.132D-01
 Coeff:      0.311D+00 0.770D+00
 Gap=     0.142 Goal=   None    Shift=    0.000
 RMSDP=1.23D-08 MaxDP=8.30D-07 DE=-2.67D-10 OVMax= 6.57D-06

 Cycle  15  Pass 1  IDiag  1:
 RMSU=  6.55D-09    CP:  9.77D-01  8.56D-01  1.00D+00  8.53D-01  1.05D+00
                    CP:  1.37D+00  1.41D+00  1.26D+00  1.24D+00  1.25D+00
                    CP:  1.19D+00  1.28D+00  1.45D+00  1.28D+00
 E= -1976.99078050216     Delta-E=       -0.000000000054 Rises=F Damp=F
 DIIS: error= 4.54D-08 at cycle  15 NSaved=  15.
 NSaved=15 IEnMin=15 EnMin= -1976.99078050216     IErMin=15 ErrMin= 4.54D-08
 ErrMax= 4.54D-08  0.00D+00 EMaxC= 1.00D-01 BMatC= 3.00D-12 BMatP= 1.46D-11
 IDIUse=1 WtCom= 1.00D+00 WtEn= 0.00D+00
 Coeff-Com: -0.264D-06 0.994D-06-0.121D-05-0.102D-04-0.376D-04-0.939D-04
 Coeff-Com:  0.107D-03 0.121D-02 0.176D-02-0.403D-03-0.168D-01-0.955D-01
 Coeff-Com: -0.420D-01 0.282D+00 0.870D+00
 Coeff:     -0.264D-06 0.994D-06-0.121D-05-0.102D-04-0.376D-04-0.939D-04
 Coeff:      0.107D-03 0.121D-02 0.176D-02-0.403D-03-0.168D-01-0.955D-01
 Coeff:     -0.420D-01 0.282D+00 0.870D+00
 Gap=     0.142 Goal=   None    Shift=    0.000
 RMSDP=8.39D-09 MaxDP=8.50D-07 DE=-5.37D-11 OVMax= 4.62D-06

 Error on total polarization charges =  0.02017
 SCF Done:  E(RM062X) =  -1976.99078050     A.U. after   15 cycles
            NFock= 15  Conv=0.84D-08     -V/T= 2.0037
 KE= 1.969682641908D+03 PE=-1.043395015935D+04 EE= 3.595906923155D+03
 Leave Link  502 at Thu Nov  6 07:06:29 2025, MaxMem= 30870077440 cpu:           28992.0 elap:             459.5
 (Enter /public/software/gauss/g16/l601.exe)
 Copying SCF densities to generalized density rwf, IOpCl= 0 IROHF=0.

 **********************************************************************

            Population analysis using the SCF density.

 **********************************************************************

 Orbital symmetries:
       Occupied  (A) (A) (A) (A) (A) (A) (A) (A) (A) (A) (A) (A)
                 (A) (A) (A) (A) (A) (A) (A) (A) (A) (A) (A) (A)
                 (A) (A) (A) (A) (A) (A) (A) (A) (A) (A) (A) (A)
                 (A) (A) (A) (A) (A) (A) (A) (A) (A) (A) (A) (A)
                 (A) (A) (A) (A) (A) (A) (A) (A) (A) (A) (A) (A)
                 (A) (A) (A) (A) (A) (A) (A) (A) (A) (A) (A) (A)
                 (A) (A) (A) (A) (A) (A) (A) (A) (A) (A) (A) (A)
                 (A) (A) (A) (A) (A) (A) (A) (A) (A) (A) (A) (A)
                 (A) (A) (A) (A) (A) (A) (A) (A) (A) (A)
       Virtual   (A) (A) (A) (A) (A) (A) (A) (A) (A) (A) (A) (A)
                 (A) (A) (A) (A) (A) (A) (A) (A) (A) (A) (A) (A)
                 (A) (A) (A) (A) (A) (A) (A) (A) (A) (A) (A) (A)
                 (A) (A) (A) (A) (A) (A) (A) (A) (A) (A) (A) (A)
                 (A) (A) (A) (A) (A) (A) (A) (A) (A) (A) (A) (A)
                 (A) (A) (A) (A) (A) (A) (A) (A) (A) (A) (A) (A)
                 (A) (A) (A) (A) (A) (A) (A) (A) (A) (A) (A) (A)
                 (A) (A) (A) (A) (A) (A) (A) (A) (A) (A) (A) (A)
                 (A) (A) (A) (A) (A) (A) (A) (A) (A) (A) (A) (A)
                 (A) (A) (A) (A) (A) (A) (A) (A) (A) (A) (A) (A)
                 (A) (A) (A) (A) (A) (A) (A) (A) (A) (A) (A) (A)
                 (A) (A) (A) (A) (A) (A) (A) (A) (A) (A) (A) (A)
                 (A) (A) (A) (A) (A) (A) (A) (A) (A) (A) (A) (A)
                 (A) (A) (A) (A) (A) (A) (A) (A) (A) (A) (A) (A)
                 (A) (A) (A) (A) (A) (A) (A) (A) (A) (A) (A) (A)
                 (A) (A) (A) (A) (A) (A) (A) (A) (A) (A) (A) (A)
                 (A) (A) (A) (A) (A) (A) (A) (A) (A) (A) (A) (A)
                 (A) (A) (A) (A) (A) (A) (A) (A) (A) (A) (A) (A)
                 (A) (A) (A) (A) (A) (A) (A) (A) (A) (A) (A) (A)
                 (A) (A) (A) (A) (A) (A) (A) (A) (A) (A) (A) (A)
                 (A) (A) (A) (A) (A) (A) (A) (A) (A) (A) (A) (A)
                 (A) (A) (A) (A) (A) (A) (A) (A) (A) (A) (A) (A)
                 (A) (A) (A) (A) (A) (A) (A) (A) (A) (A) (A) (A)
                 (A) (A) (A) (A) (A) (A) (A) (A) (A) (A) (A) (A)
                 (A) (A) (A) (A) (A) (A) (A) (A) (A) (A) (A) (A)
                 (A) (A) (A) (A) (A) (A) (A) (A) (A) (A) (A) (A)
                 (A) (A) (A) (A) (A) (A) (A) (A) (A) (A) (A) (A)
                 (A) (A) (A) (A) (A) (A) (A) (A) (A) (A) (A) (A)
                 (A) (A) (A) (A) (A) (A) (A) (A) (A) (A) (A) (A)
                 (A) (A) (A) (A) (A) (A) (A) (A) (A) (A) (A) (A)
                 (A) (A) (A) (A) (A) (A) (A) (A) (A) (A) (A) (A)
                 (A) (A) (A) (A) (A) (A) (A) (A) (A) (A) (A) (A)
                 (A) (A) (A) (A) (A) (A) (A) (A) (A) (A) (A) (A)
                 (A) (A) (A) (A) (A) (A) (A) (A) (A) (A) (A) (A)
                 (A) (A) (A) (A) (A) (A) (A) (A) (A) (A) (A) (A)
                 (A) (A) (A) (A) (A) (A) (A) (A) (A) (A) (A) (A)
                 (A) (A) (A) (A) (A) (A) (A) (A) (A) (A) (A) (A)
                 (A) (A) (A) (A) (A) (A) (A) (A) (A) (A) (A) (A)
                 (A) (A) (A) (A) (A) (A) (A) (A) (A) (A) (A) (A)
                 (A) (A) (A) (A) (A) (A) (A) (A) (A) (A) (A) (A)
                 (A) (A) (A) (A) (A) (A) (A) (A) (A) (A) (A) (A)
                 (A) (A) (A) (A) (A) (A) (A) (A) (A) (A) (A) (A)
                 (A) (A) (A) (A) (A) (A) (A) (A) (A) (A) (A) (A)
                 (A) (A) (A) (A) (A) (A) (A) (A) (A) (A) (A) (A)
                 (A) (A) (A) (A) (A) (A) (A) (A) (A) (A) (A) (A)
                 (A) (A) (A) (A) (A) (A) (A) (A) (A) (A) (A) (A)
                 (A) (A) (A) (A) (A) (A) (A) (A) (A) (A) (A) (A)
                 (A) (A) (A) (A) (A) (A) (A) (A) (A) (A) (A) (A)
                 (A) (A) (A) (A) (A) (A) (A) (A) (A) (A) (A) (A)
                 (A) (A) (A) (A) (A) (A) (A) (A) (A) (A) (A) (A)
                 (A) (A) (A) (A) (A) (A) (A) (A) (A) (A) (A) (A)
                 (A) (A) (A) (A) (A) (A) (A) (A) (A) (A) (A) (A)
                 (A) (A) (A) (A) (A) (A) (A) (A) (A) (A) (A) (A)
                 (A) (A) (A) (A) (A) (A) (A) (A) (A) (A) (A) (A)
                 (A) (A) (A) (A) (A) (A) (A) (A) (A) (A) (A) (A)
                 (A) (A) (A) (A) (A) (A) (A) (A) (A) (A) (A) (A)
                 (A) (A) (A) (A) (A) (A) (A) (A) (A) (A) (A) (A)
                 (A) (A) (A) (A) (A) (A) (A) (A) (A) (A) (A) (A)
                 (A) (A) (A) (A) (A) (A) (A) (A) (A) (A) (A) (A)
                 (A) (A) (A) (A) (A) (A) (A) (A) (A) (A) (A) (A)
                 (A) (A) (A) (A) (A) (A) (A) (A) (A) (A) (A) (A)
                 (A) (A) (A) (A) (A) (A) (A) (A) (A) (A) (A) (A)
                 (A) (A) (A) (A) (A) (A) (A) (A) (A) (A) (A) (A)
                 (A) (A) (A) (A) (A) (A) (A) (A) (A) (A) (A) (A)
                 (A) (A) (A) (A) (A) (A) (A) (A) (A) (A) (A) (A)
                 (A) (A) (A) (A) (A) (A) (A) (A) (A) (A) (A) (A)
                 (A) (A) (A) (A) (A) (A) (A) (A) (A) (A) (A) (A)
                 (A) (A) (A) (A) (A) (A) (A) (A) (A) (A) (A) (A)
                 (A) (A) (A) (A) (A) (A) (A) (A) (A) (A) (A) (A)
                 (A) (A) (A) (A) (A) (A) (A) (A) (A) (A) (A) (A)
                 (A) (A) (A) (A) (A) (A) (A) (A) (A) (A) (A) (A)
                 (A) (A) (A) (A) (A) (A) (A) (A) (A) (A) (A) (A)
                 (A) (A) (A) (A) (A) (A) (A) (A) (A) (A) (A) (A)
                 (A) (A) (A) (A) (A) (A) (A) (A) (A) (A) (A) (A)
                 (A) (A) (A) (A) (A) (A) (A) (A) (A) (A) (A) (A)
                 (A) (A) (A) (A) (A) (A) (A) (A) (A) (A) (A) (A)
                 (A) (A) (A) (A) (A) (A) (A) (A) (A) (A) (A) (A)
                 (A) (A) (A) (A) (A) (A) (A) (A) (A) (A) (A) (A)
                 (A) (A) (A) (A) (A) (A) (A) (A) (A) (A) (A) (A)
                 (A) (A) (A) (A) (A) (A) (A) (A) (A) (A) (A) (A)
                 (A) (A) (A) (A) (A) (A) (A) (A) (A) (A) (A) (A)
                 (A) (A) (A) (A) (A) (A) (A) (A) (A) (A) (A) (A)
                 (A) (A) (A) (A) (A) (A) (A) (A) (A) (A)
 The electronic state is 1-A.
 Alpha  occ. eigenvalues --  -89.94656 -89.93933 -25.21316 -25.21266 -19.63562
 Alpha  occ. eigenvalues --  -14.80208 -14.80100 -10.64332 -10.63052 -10.61241
 Alpha  occ. eigenvalues --  -10.60026 -10.59844 -10.59588 -10.59455 -10.59043
 Alpha  occ. eigenvalues --  -10.58494 -10.57657 -10.57240 -10.57012 -10.56586
 Alpha  occ. eigenvalues --  -10.56513 -10.56144 -10.55695 -10.55646 -10.55173
 Alpha  occ. eigenvalues --  -10.54438 -10.54430  -8.30370  -8.29635  -7.14621
 Alpha  occ. eigenvalues --   -6.22271  -6.22088  -6.21958  -6.21535  -6.21352
 Alpha  occ. eigenvalues --   -6.21217  -1.33294  -1.30212  -1.17066  -1.11880
 Alpha  occ. eigenvalues --   -1.10099  -0.99480  -0.98835  -0.93506  -0.92277
 Alpha  occ. eigenvalues --   -0.91491  -0.88192  -0.84924  -0.83772  -0.83135
 Alpha  occ. eigenvalues --   -0.82186  -0.81675  -0.78064  -0.77272  -0.74252
 Alpha  occ. eigenvalues --   -0.69586  -0.69064  -0.67257  -0.65718  -0.64487
 Alpha  occ. eigenvalues --   -0.63920  -0.63432  -0.61432  -0.60897  -0.60669
 Alpha  occ. eigenvalues --   -0.60026  -0.59306  -0.57298  -0.56600  -0.55102
 Alpha  occ. eigenvalues --   -0.54269  -0.53487  -0.53376  -0.52562  -0.51417
 Alpha  occ. eigenvalues --   -0.51372  -0.50311  -0.49163  -0.48772  -0.48605
 Alpha  occ. eigenvalues --   -0.47948  -0.47814  -0.47457  -0.47280  -0.47115
 Alpha  occ. eigenvalues --   -0.46794  -0.46605  -0.46401  -0.46139  -0.45507
 Alpha  occ. eigenvalues --   -0.45077  -0.44775  -0.44271  -0.43531  -0.41748
 Alpha  occ. eigenvalues --   -0.40890  -0.40345  -0.37584  -0.34786  -0.33175
 Alpha  occ. eigenvalues --   -0.32939  -0.32004  -0.31882  -0.31388  -0.29943
 Alpha  occ. eigenvalues --   -0.25082
 Alpha virt. eigenvalues --   -0.10853  -0.02213  -0.01177   0.00775   0.04678
 Alpha virt. eigenvalues --    0.04868   0.05632   0.06158   0.06776   0.07500
 Alpha virt. eigenvalues --    0.08164   0.08269   0.09339   0.09671   0.09870
 Alpha virt. eigenvalues --    0.10460   0.10600   0.10633   0.11577   0.11909
 Alpha virt. eigenvalues --    0.12289   0.12504   0.12904   0.13280   0.14026
 Alpha virt. eigenvalues --    0.14074   0.14646   0.14964   0.15512   0.16053
 Alpha virt. eigenvalues --    0.16610   0.16831   0.17151   0.17663   0.17979
 Alpha virt. eigenvalues --    0.18526   0.19495   0.20059   0.20468   0.20803
 Alpha virt. eigenvalues --    0.21192   0.21538   0.21910   0.22402   0.22840
 Alpha virt. eigenvalues --    0.23031   0.23366   0.23535   0.23963   0.24310
 Alpha virt. eigenvalues --    0.25038   0.25463   0.25914   0.26307   0.26445
 Alpha virt. eigenvalues --    0.26564   0.27154   0.27546   0.27789   0.28428
 Alpha virt. eigenvalues --    0.28497   0.28835   0.29211   0.29858   0.30034
 Alpha virt. eigenvalues --    0.30247   0.30835   0.31350   0.31674   0.32047
 Alpha virt. eigenvalues --    0.32687   0.32859   0.32925   0.33487   0.34374
 Alpha virt. eigenvalues --    0.34679   0.35300   0.35427   0.35793   0.36484
 Alpha virt. eigenvalues --    0.36841   0.36876   0.37203   0.37666   0.37755
 Alpha virt. eigenvalues --    0.38260   0.38472   0.38819   0.39020   0.39424
 Alpha virt. eigenvalues --    0.39607   0.40122   0.40381   0.40773   0.41168
 Alpha virt. eigenvalues --    0.41329   0.41683   0.42262   0.42752   0.42813
 Alpha virt. eigenvalues --    0.43390   0.43682   0.44048   0.44259   0.44460
 Alpha virt. eigenvalues --    0.44927   0.45151   0.45418   0.45621   0.46065
 Alpha virt. eigenvalues --    0.46307   0.46927   0.46973   0.48091   0.48174
 Alpha virt. eigenvalues --    0.48548   0.48835   0.49264   0.49343   0.50165
 Alpha virt. eigenvalues --    0.50260   0.50362   0.50633   0.51260   0.51649
 Alpha virt. eigenvalues --    0.52029   0.52741   0.52915   0.53362   0.53993
 Alpha virt. eigenvalues --    0.54181   0.54740   0.55080   0.55436   0.55711
 Alpha virt. eigenvalues --    0.56527   0.56984   0.57756   0.58072   0.58561
 Alpha virt. eigenvalues --    0.59255   0.59574   0.59689   0.60355   0.60978
 Alpha virt. eigenvalues --    0.61359   0.61925   0.62436   0.63299   0.63647
 Alpha virt. eigenvalues --    0.63767   0.64265   0.64502   0.65198   0.65445
 Alpha virt. eigenvalues --    0.65718   0.66163   0.66653   0.67350   0.67746
 Alpha virt. eigenvalues --    0.67916   0.68422   0.68675   0.69212   0.69421
 Alpha virt. eigenvalues --    0.69880   0.70446   0.71251   0.71622   0.71697
 Alpha virt. eigenvalues --    0.71982   0.72468   0.72733   0.73808   0.73869
 Alpha virt. eigenvalues --    0.74485   0.74587   0.75078   0.75997   0.76437
 Alpha virt. eigenvalues --    0.77410   0.77754   0.78348   0.78634   0.79547
 Alpha virt. eigenvalues --    0.79921   0.80691   0.81470   0.81704   0.82257
 Alpha virt. eigenvalues --    0.82602   0.83021   0.83596   0.84266   0.84641
 Alpha virt. eigenvalues --    0.85578   0.85627   0.86098   0.86607   0.87003
 Alpha virt. eigenvalues --    0.87818   0.89000   0.89283   0.90132   0.90241
 Alpha virt. eigenvalues --    0.90679   0.90762   0.91151   0.91616   0.91942
 Alpha virt. eigenvalues --    0.92775   0.93253   0.93959   0.94219   0.94675
 Alpha virt. eigenvalues --    0.95363   0.95551   0.95769   0.96150   0.96773
 Alpha virt. eigenvalues --    0.97419   0.97548   0.98340   0.98425   0.99203
 Alpha virt. eigenvalues --    0.99403   1.00252   1.00597   1.00879   1.01517
 Alpha virt. eigenvalues --    1.01664   1.02286   1.02971   1.03757   1.03905
 Alpha virt. eigenvalues --    1.04453   1.04953   1.05609   1.06068   1.06204
 Alpha virt. eigenvalues --    1.06755   1.07506   1.08277   1.08757   1.09266
 Alpha virt. eigenvalues --    1.09615   1.09723   1.10184   1.10646   1.11368
 Alpha virt. eigenvalues --    1.11745   1.12099   1.12891   1.13394   1.14276
 Alpha virt. eigenvalues --    1.14954   1.15159   1.16078   1.16344   1.16932
 Alpha virt. eigenvalues --    1.17328   1.17761   1.18071   1.18769   1.19579
 Alpha virt. eigenvalues --    1.20097   1.20323   1.20523   1.21399   1.22239
 Alpha virt. eigenvalues --    1.22609   1.23645   1.23892   1.24416   1.25224
 Alpha virt. eigenvalues --    1.26423   1.27086   1.27509   1.27544   1.28617
 Alpha virt. eigenvalues --    1.29200   1.29748   1.29934   1.30296   1.31296
 Alpha virt. eigenvalues --    1.31735   1.32105   1.32688   1.32900   1.33239
 Alpha virt. eigenvalues --    1.33690   1.35191   1.35197   1.35515   1.36096
 Alpha virt. eigenvalues --    1.36464   1.37682   1.38330   1.38844   1.39299
 Alpha virt. eigenvalues --    1.39755   1.40620   1.41363   1.42150   1.42277
 Alpha virt. eigenvalues --    1.43124   1.43671   1.43933   1.44765   1.44855
 Alpha virt. eigenvalues --    1.45590   1.46515   1.46951   1.47480   1.47827
 Alpha virt. eigenvalues --    1.47873   1.48736   1.49119   1.49333   1.49581
 Alpha virt. eigenvalues --    1.50024   1.50624   1.50942   1.51048   1.52090
 Alpha virt. eigenvalues --    1.52306   1.53033   1.53280   1.54252   1.54434
 Alpha virt. eigenvalues --    1.55634   1.56202   1.56356   1.56588   1.57301
 Alpha virt. eigenvalues --    1.57714   1.58011   1.58276   1.58949   1.59194
 Alpha virt. eigenvalues --    1.59452   1.59806   1.60431   1.60848   1.60869
 Alpha virt. eigenvalues --    1.61674   1.62179   1.62590   1.62992   1.63197
 Alpha virt. eigenvalues --    1.63351   1.64162   1.64893   1.65280   1.66363
 Alpha virt. eigenvalues --    1.67193   1.68395   1.68867   1.68964   1.70516
 Alpha virt. eigenvalues --    1.70753   1.71841   1.71885   1.72099   1.72579
 Alpha virt. eigenvalues --    1.73895   1.74573   1.75307   1.76148   1.77635
 Alpha virt. eigenvalues --    1.77890   1.78918   1.79674   1.80155   1.80266
 Alpha virt. eigenvalues --    1.80544   1.81040   1.81687   1.82880   1.83494
 Alpha virt. eigenvalues --    1.84243   1.84704   1.85314   1.85870   1.86257
 Alpha virt. eigenvalues --    1.87072   1.87101   1.87674   1.88140   1.88519
 Alpha virt. eigenvalues --    1.89844   1.90304   1.90942   1.91830   1.92252
 Alpha virt. eigenvalues --    1.92433   1.92839   1.93909   1.94202   1.95615
 Alpha virt. eigenvalues --    1.95835   1.97435   1.97907   1.98587   1.99112
 Alpha virt. eigenvalues --    1.99611   1.99967   2.01320   2.01784   2.02747
 Alpha virt. eigenvalues --    2.03501   2.04753   2.05315   2.06915   2.07852
 Alpha virt. eigenvalues --    2.08481   2.08697   2.09497   2.10314   2.10976
 Alpha virt. eigenvalues --    2.11182   2.11390   2.13055   2.13457   2.14344
 Alpha virt. eigenvalues --    2.14527   2.14856   2.15253   2.15925   2.16721
 Alpha virt. eigenvalues --    2.17083   2.18106   2.18467   2.19522   2.19872
 Alpha virt. eigenvalues --    2.20659   2.20864   2.22149   2.23460   2.23897
 Alpha virt. eigenvalues --    2.25172   2.26343   2.27074   2.27991   2.29999
 Alpha virt. eigenvalues --    2.30247   2.31948   2.33059   2.33453   2.33928
 Alpha virt. eigenvalues --    2.34674   2.35417   2.36704   2.37459   2.37878
 Alpha virt. eigenvalues --    2.38208   2.38854   2.40148   2.40424   2.42378
 Alpha virt. eigenvalues --    2.42408   2.43867   2.45965   2.46841   2.47753
 Alpha virt. eigenvalues --    2.48338   2.49371   2.50325   2.51594   2.52777
 Alpha virt. eigenvalues --    2.53642   2.54594   2.54871   2.56013   2.56294
 Alpha virt. eigenvalues --    2.56730   2.57274   2.58175   2.58314   2.59079
 Alpha virt. eigenvalues --    2.60246   2.61882   2.62642   2.63160   2.63658
 Alpha virt. eigenvalues --    2.64010   2.65029   2.66235   2.66317   2.67363
 Alpha virt. eigenvalues --    2.67832   2.68295   2.69339   2.69785   2.70108
 Alpha virt. eigenvalues --    2.70902   2.71149   2.72014   2.72179   2.72881
 Alpha virt. eigenvalues --    2.73469   2.73974   2.74241   2.74734   2.75622
 Alpha virt. eigenvalues --    2.76825   2.77163   2.77865   2.78105   2.79061
 Alpha virt. eigenvalues --    2.79833   2.81344   2.81453   2.81775   2.83063
 Alpha virt. eigenvalues --    2.83194   2.84316   2.84750   2.84927   2.85570
 Alpha virt. eigenvalues --    2.85612   2.87522   2.88384   2.88988   2.89316
 Alpha virt. eigenvalues --    2.89659   2.90371   2.90611   2.91020   2.91809
 Alpha virt. eigenvalues --    2.92276   2.92738   2.92830   2.93516   2.94207
 Alpha virt. eigenvalues --    2.94520   2.95089   2.95327   2.96082   2.96417
 Alpha virt. eigenvalues --    2.96974   2.97628   2.98059   2.98135   2.98998
 Alpha virt. eigenvalues --    2.99354   2.99853   3.00407   3.00793   3.01145
 Alpha virt. eigenvalues --    3.01507   3.02089   3.02594   3.03136   3.03349
 Alpha virt. eigenvalues --    3.03689   3.04113   3.04599   3.05198   3.05430
 Alpha virt. eigenvalues --    3.05951   3.06414   3.06873   3.07120   3.07481
 Alpha virt. eigenvalues --    3.08266   3.08529   3.09198   3.09518   3.10544
 Alpha virt. eigenvalues --    3.11334   3.11516   3.12085   3.12253   3.12571
 Alpha virt. eigenvalues --    3.13187   3.13280   3.14055   3.14707   3.15150
 Alpha virt. eigenvalues --    3.15679   3.16112   3.16626   3.16758   3.17421
 Alpha virt. eigenvalues --    3.18104   3.18224   3.18596   3.19102   3.19273
 Alpha virt. eigenvalues --    3.19539   3.19865   3.20819   3.20856   3.21416
 Alpha virt. eigenvalues --    3.21466   3.22615   3.22855   3.23227   3.23631
 Alpha virt. eigenvalues --    3.23893   3.24331   3.24858   3.25422   3.26025
 Alpha virt. eigenvalues --    3.26839   3.26978   3.27890   3.28613   3.29143
 Alpha virt. eigenvalues --    3.30043   3.30417   3.30572   3.31426   3.31646
 Alpha virt. eigenvalues --    3.32639   3.32885   3.33292   3.33661   3.34534
 Alpha virt. eigenvalues --    3.35150   3.35553   3.36345   3.36609   3.37179
 Alpha virt. eigenvalues --    3.37511   3.37839   3.38326   3.38657   3.39533
 Alpha virt. eigenvalues --    3.40205   3.40615   3.41737   3.42268   3.42289
 Alpha virt. eigenvalues --    3.43180   3.43448   3.44370   3.45181   3.45550
 Alpha virt. eigenvalues --    3.45845   3.46097   3.46244   3.46798   3.47347
 Alpha virt. eigenvalues --    3.48195   3.48245   3.48978   3.50012   3.50104
 Alpha virt. eigenvalues --    3.50850   3.51427   3.52142   3.52497   3.53221
 Alpha virt. eigenvalues --    3.53894   3.54152   3.54856   3.55141   3.55618
 Alpha virt. eigenvalues --    3.56317   3.56781   3.57563   3.57835   3.58097
 Alpha virt. eigenvalues --    3.58349   3.59216   3.59490   3.60259   3.61230
 Alpha virt. eigenvalues --    3.62081   3.62794   3.63309   3.63740   3.64795
 Alpha virt. eigenvalues --    3.64975   3.65603   3.66061   3.67037   3.67716
 Alpha virt. eigenvalues --    3.68880   3.69135   3.70361   3.70954   3.71876
 Alpha virt. eigenvalues --    3.72328   3.73051   3.73858   3.74167   3.75281
 Alpha virt. eigenvalues --    3.75814   3.76275   3.76677   3.77481   3.78259
 Alpha virt. eigenvalues --    3.78689   3.79243   3.79479   3.80150   3.81001
 Alpha virt. eigenvalues --    3.81459   3.82256   3.82430   3.82746   3.83472
 Alpha virt. eigenvalues --    3.84000   3.84533   3.84841   3.85587   3.86294
 Alpha virt. eigenvalues --    3.87257   3.87929   3.88550   3.89242   3.89804
 Alpha virt. eigenvalues --    3.90652   3.90842   3.91820   3.92370   3.92736
 Alpha virt. eigenvalues --    3.93111   3.93862   3.94585   3.95370   3.96423
 Alpha virt. eigenvalues --    3.96657   3.98332   3.98506   3.99094   3.99630
 Alpha virt. eigenvalues --    4.00524   4.00775   4.01359   4.02017   4.02406
 Alpha virt. eigenvalues --    4.04082   4.04383   4.04613   4.05651   4.06550
 Alpha virt. eigenvalues --    4.06943   4.07530   4.08501   4.09179   4.09486
 Alpha virt. eigenvalues --    4.10358   4.10850   4.11289   4.12157   4.12866
 Alpha virt. eigenvalues --    4.13520   4.14447   4.14869   4.15542   4.16440
 Alpha virt. eigenvalues --    4.16667   4.17239   4.18184   4.18682   4.20107
 Alpha virt. eigenvalues --    4.20288   4.21440   4.21995   4.22420   4.22842
 Alpha virt. eigenvalues --    4.23377   4.24938   4.25584   4.25843   4.26309
 Alpha virt. eigenvalues --    4.26903   4.27499   4.28943   4.29179   4.29724
 Alpha virt. eigenvalues --    4.30404   4.31161   4.31802   4.32200   4.33149
 Alpha virt. eigenvalues --    4.33730   4.35660   4.35920   4.37760   4.37919
 Alpha virt. eigenvalues --    4.38677   4.39655   4.40778   4.41341   4.41618
 Alpha virt. eigenvalues --    4.42643   4.43202   4.44942   4.45672   4.46560
 Alpha virt. eigenvalues --    4.48769   4.50863   4.51878   4.52568   4.53301
 Alpha virt. eigenvalues --    4.54072   4.55743   4.56950   4.58248   4.58902
 Alpha virt. eigenvalues --    4.60927   4.61418   4.62720   4.63316   4.63893
 Alpha virt. eigenvalues --    4.64473   4.64999   4.65399   4.67397   4.68859
 Alpha virt. eigenvalues --    4.70403   4.70627   4.71772   4.73193   4.74878
 Alpha virt. eigenvalues --    4.76041   4.77899   4.78289   4.80151   4.80223
 Alpha virt. eigenvalues --    4.81889   4.82905   4.84901   4.85463   4.85831
 Alpha virt. eigenvalues --    4.86144   4.88191   4.89977   4.91857   4.92043
 Alpha virt. eigenvalues --    4.93537   4.94338   4.95731   4.96405   4.98208
 Alpha virt. eigenvalues --    4.98930   5.00668   5.01631   5.03386   5.03536
 Alpha virt. eigenvalues --    5.04817   5.05277   5.06682   5.07194   5.08151
 Alpha virt. eigenvalues --    5.09096   5.09678   5.10035   5.11264   5.12347
 Alpha virt. eigenvalues --    5.13462   5.13863   5.14800   5.15421   5.16047
 Alpha virt. eigenvalues --    5.16882   5.17859   5.18803   5.19384   5.21063
 Alpha virt. eigenvalues --    5.21919   5.22552   5.23248   5.24091   5.24783
 Alpha virt. eigenvalues --    5.25612   5.27064   5.27712   5.28605   5.29496
 Alpha virt. eigenvalues --    5.31223   5.31784   5.32457   5.33928   5.34619
 Alpha virt. eigenvalues --    5.35544   5.35950   5.38589   5.39487   5.41416
 Alpha virt. eigenvalues --    5.42873   5.44797   5.45538   5.49409   5.50557
 Alpha virt. eigenvalues --    5.52584   5.55244   5.56336   5.57629   5.58532
 Alpha virt. eigenvalues --    5.59274   5.59923   5.60907   5.61404   5.63913
 Alpha virt. eigenvalues --    5.65633   5.66111   5.66932   5.68744   5.69053
 Alpha virt. eigenvalues --    5.72164   5.78171   5.79083   5.80732   5.89239
 Alpha virt. eigenvalues --    5.91227   5.95841   5.99816   6.02800   6.05314
 Alpha virt. eigenvalues --    6.08755   6.11386   6.15745   6.29695   6.36597
 Alpha virt. eigenvalues --    6.41469   6.58423   6.78006   6.79660   6.85035
 Alpha virt. eigenvalues --    6.86158   6.88317   6.88684   6.93302   6.93717
 Alpha virt. eigenvalues --    6.95018   6.95241   6.96415   6.98385   6.98700
 Alpha virt. eigenvalues --    7.00185   7.04321   7.04733   7.05808   7.07368
 Alpha virt. eigenvalues --    7.08850   7.10135   7.15990   7.21602   7.24020
 Alpha virt. eigenvalues --    7.27048   7.32833   7.34427   7.44480   7.44858
 Alpha virt. eigenvalues --    8.44791   8.46960   8.53770   8.58861   8.84274
 Alpha virt. eigenvalues --    8.85988   8.91214   8.91445   8.93093   8.97226
 Alpha virt. eigenvalues --    8.98152   9.01252   9.52102   9.53465   9.57176
 Alpha virt. eigenvalues --    9.57978  15.82670  20.36785  20.38772  22.62766
 Alpha virt. eigenvalues --   22.65913  22.86156  22.90877  23.01669  23.03920
 Alpha virt. eigenvalues --   23.26802  23.27929  23.29612  23.34238  23.41094
 Alpha virt. eigenvalues --   23.42952  23.50036  23.52327  23.57916  23.61248
 Alpha virt. eigenvalues --   23.67960  23.72195  23.82317  23.89845  33.07934
 Alpha virt. eigenvalues --   33.20888  44.05531  57.36957  57.56151
          Condensed to atoms (all electrons):
               1          2          3          4          5          6
     1  C    5.046781   0.243542  -0.041249   0.005586  -0.000642   0.000126
     2  C    0.243542   5.322602   0.421674  -0.059854   0.023546  -0.001153
     3  C   -0.041249   0.421674   5.075852   0.441178  -0.085142   0.013997
     4  C    0.005586  -0.059854   0.441178   4.999865   0.446354  -0.071559
     5  C   -0.000642   0.023546  -0.085142   0.446354   5.230859   0.378407
     6  C    0.000126  -0.001153   0.013997  -0.071559   0.378407   5.410613
     7  C    0.000001   0.000846  -0.003568  -0.008047  -0.126852   0.127280
     8  C    0.000000   0.000036  -0.000384   0.002514  -0.000390  -0.100366
     9  O    0.000000   0.000016  -0.000446   0.004993   0.005130  -0.060880
    10  C   -0.000001  -0.000238   0.000840   0.001929   0.029639   0.074799
    11  C   -0.000000  -0.000001   0.000006   0.000172  -0.000987   0.029505
    12  C    0.000002   0.000399  -0.000803  -0.005957   0.002019  -0.198138
    13  C    0.000000   0.000066  -0.000129  -0.000031  -0.005529  -0.032807
    14  C   -0.000000  -0.000001   0.000000   0.000005   0.000135   0.000792
    15  C   -0.000000  -0.000000   0.000000  -0.000002   0.000002   0.000220
    16  C   -0.000000  -0.000000  -0.000000  -0.000000  -0.000004  -0.000195
    17  S   -0.000000   0.000003   0.000012   0.000343  -0.000401   0.001057
    18  N    0.000003  -0.000594  -0.000262  -0.001271  -0.065806   0.414100
    19  B    0.000737   0.014096  -0.003861  -0.023681  -0.042058  -0.025529
    20  F   -0.000011  -0.001557   0.000725  -0.007479   0.002949  -0.008563
    21  F    0.000019   0.000941  -0.000515  -0.000520   0.001975  -0.000372
    22  N    0.004512  -0.081605  -0.105117   0.393385  -0.053729  -0.001476
    23  C   -0.081686   0.431666  -0.051433  -0.106701  -0.000445  -0.005433
    24  C   -0.005923  -0.195448   0.072849  -0.037777  -0.006284  -0.000980
    25  C    0.002384   0.012551  -0.003511   0.001424  -0.000241   0.000188
    26  C    0.000359  -0.001277   0.000282  -0.000015   0.000002   0.000003
    27  C   -0.001333   0.000800  -0.000180  -0.000055  -0.000010  -0.000001
    28  S   -0.012572  -0.001770   0.004265  -0.001033   0.000117  -0.000018
    29  H    0.420700  -0.047129   0.001742  -0.000889   0.000098  -0.000013
    30  H    0.407869  -0.026437  -0.024773   0.003479  -0.000064   0.000001
    31  H    0.449526  -0.066445   0.004792  -0.001120  -0.000032   0.000000
    32  H   -0.001631  -0.005906   0.377879   0.000436  -0.000783   0.000503
    33  H    0.000012   0.000262  -0.005002   0.032601   0.333868  -0.003901
    34  H    0.000000   0.000000  -0.000007   0.000200   0.002539   0.017724
    35  H    0.000000   0.000000  -0.000000  -0.000016   0.000084  -0.001794
    36  H    0.000000   0.000000  -0.000000   0.000002  -0.000008  -0.001982
    37  H   -0.000000  -0.000000   0.000000   0.000000  -0.000070   0.004771
    38  H    0.000000  -0.000000   0.000000   0.000003  -0.000006   0.000314
    39  H    0.000000   0.000000  -0.000000  -0.000000   0.000000   0.000001
    40  H    0.000000   0.000000   0.000000   0.000000  -0.000000  -0.000000
    41  H    0.000085   0.000943  -0.000017  -0.000163  -0.000035  -0.000120
    42  H    0.000008   0.000014  -0.000001   0.000001  -0.000000   0.000000
    43  H   -0.000016  -0.000012   0.000002  -0.000001   0.000000  -0.000000
               7          8          9         10         11         12
     1  C    0.000001   0.000000   0.000000  -0.000001  -0.000000   0.000002
     2  C    0.000846   0.000036   0.000016  -0.000238  -0.000001   0.000399
     3  C   -0.003568  -0.000384  -0.000446   0.000840   0.000006  -0.000803
     4  C   -0.008047   0.002514   0.004993   0.001929   0.000172  -0.005957
     5  C   -0.126852  -0.000390   0.005130   0.029639  -0.000987   0.002019
     6  C    0.127280  -0.100366  -0.060880   0.074799   0.029505  -0.198138
     7  C    6.120092   0.093523  -0.120860   0.113147  -0.041913   0.016631
     8  C    0.093523   4.768490   0.629729  -0.060318  -0.031992   0.023414
     9  O   -0.120860   0.629729   7.955614  -0.004647  -0.001336   0.001954
    10  C    0.113147  -0.060318  -0.004647   5.678101   0.262578   0.372477
    11  C   -0.041913  -0.031992  -0.001336   0.262578   5.076332  -0.085327
    12  C    0.016631   0.023414   0.001954   0.372477  -0.085327   5.606739
    13  C    0.081576   0.000148   0.000009  -0.288529  -0.017926  -0.041263
    14  C    0.001973  -0.000015  -0.000000  -0.014865  -0.007236  -0.133588
    15  C   -0.000443  -0.000007  -0.000000   0.005363   0.000427   0.003995
    16  C    0.000263   0.000000  -0.000000  -0.002525  -0.000136  -0.017767
[...]
     2  C    0.014096  -0.001557   0.000941  -0.081605   0.431666  -0.195448
     3  C   -0.003861   0.000725  -0.000515  -0.105117  -0.051433   0.072849
     4  C   -0.023681  -0.007479  -0.000520   0.393385  -0.106701  -0.037777
     5  C   -0.042058   0.002949   0.001975  -0.053729  -0.000445  -0.006284
     6  C   -0.025529  -0.008563  -0.000372  -0.001476  -0.005433  -0.000980
     7  C    0.002670   0.000691  -0.000598  -0.000037  -0.001411  -0.000266
     8  C    0.001259   0.000006   0.000001   0.000005  -0.000006  -0.000001
     9  O    0.000224  -0.000000  -0.000000   0.000026  -0.000001   0.000000
    10  C    0.013764  -0.002313   0.001481  -0.000759   0.000519   0.000158
    11  C    0.000676  -0.000001   0.000023   0.000004   0.000003   0.000000
    12  C   -0.025327  -0.020480   0.016094   0.000412  -0.001413  -0.000041
    13  C   -0.026885   0.020430  -0.020650  -0.001114   0.000104  -0.000581
    14  C    0.002280   0.000883   0.000067   0.000006   0.000004  -0.000001
    15  C   -0.000877  -0.000455  -0.000050  -0.000001  -0.000001   0.000001
    16  C    0.001148   0.000599   0.000348   0.000019  -0.000002   0.000001
    17  S    0.007307  -0.007340  -0.006731  -0.001200   0.000158  -0.000009
    18  N    0.333155  -0.031843  -0.049318  -0.038384   0.003055   0.000413
    19  B    3.441406   0.367322   0.332691   0.336445  -0.021419  -0.022776
    20  F    0.367322   9.076301  -0.029800  -0.036001  -0.018826   0.023933
    21  F    0.332691  -0.029800   9.142782  -0.046281   0.006299  -0.011725
    22  N    0.336445  -0.036001  -0.046281   6.333151   0.432418  -0.078043
    23  C   -0.021419  -0.018826   0.006299   0.432418   5.549988  -0.105251
    24  C   -0.022776   0.023933  -0.011725  -0.078043  -0.105251   5.732861
    25  C   -0.000394  -0.007097  -0.019172   0.000884  -0.109680   0.486483
    26  C   -0.000247  -0.000879   0.000248   0.001345  -0.002924  -0.094078
    27  C   -0.000164   0.000032  -0.000025  -0.000493  -0.016867  -0.115343
    28  S    0.000880   0.000118  -0.000042   0.002892  -0.120982   0.473057
    29  H   -0.000045  -0.000001   0.000000   0.000004   0.000645  -0.009117
    30  H   -0.000002  -0.000000  -0.000000  -0.000372   0.015607  -0.000545
    31  H    0.000063   0.000001  -0.000002   0.000056  -0.022021   0.012715
    32  H    0.000345   0.000006   0.000001   0.003912   0.003417   0.000168
    33  H    0.001147   0.000029   0.000033   0.003771   0.000431   0.000105
    34  H    0.000029  -0.000000  -0.000000   0.000002   0.000001   0.000000
    35  H   -0.000059  -0.000001   0.000000   0.000000  -0.000000  -0.000000
    36  H    0.000135   0.000001  -0.000002   0.000000   0.000000   0.000000
    37  H   -0.000009   0.000000  -0.000000  -0.000000   0.000000   0.000000
    38  H   -0.000028   0.000059  -0.000001  -0.000001   0.000000  -0.000000
    39  H   -0.000014   0.000000   0.000000   0.000000  -0.000000  -0.000000
    40  H   -0.000010   0.000009  -0.000008  -0.000000   0.000000  -0.000000
    41  H   -0.005209  -0.003713   0.015463   0.001635   0.012606  -0.029214
    42  H    0.000050   0.000030  -0.000029   0.000010   0.000134   0.006951
    43  H    0.000021   0.000002   0.000000   0.000002  -0.000090   0.003919
              25         26         27         28         29         30
     1  C    0.002384   0.000359  -0.001333  -0.012572   0.420700   0.407869
     2  C    0.012551  -0.001277   0.000800  -0.001770  -0.047129  -0.026437
     3  C   -0.003511   0.000282  -0.000180   0.004265   0.001742  -0.024773
     4  C    0.001424  -0.000015  -0.000055  -0.001033  -0.000889   0.003479
     5  C   -0.000241   0.000002  -0.000010   0.000117   0.000098  -0.000064
     6  C    0.000188   0.000003  -0.000001  -0.000018  -0.000013   0.000001
     7  C    0.000038   0.000000   0.000000   0.000000  -0.000000   0.000001
     8  C    0.000000   0.000000   0.000000   0.000000  -0.000000  -0.000000
     9  O    0.000000  -0.000000   0.000000   0.000000   0.000000  -0.000000
    10  C   -0.000024  -0.000001  -0.000000  -0.000000   0.000000  -0.000000
    11  C   -0.000000  -0.000000  -0.000000  -0.000000   0.000000  -0.000000
    12  C   -0.000111  -0.000016  -0.000000   0.000004  -0.000000   0.000000
    13  C    0.000149   0.000020   0.000000   0.000000  -0.000000   0.000000
    14  C   -0.000000   0.000001   0.000000  -0.000000  -0.000000   0.000000
    15  C   -0.000000  -0.000001  -0.000000   0.000000   0.000000  -0.000000
    16  C    0.000023   0.000001  -0.000000   0.000000   0.000000  -0.000000
    17  S   -0.000300   0.000041  -0.000000  -0.000000  -0.000000   0.000000
    18  N   -0.001198  -0.000006   0.000001   0.000015  -0.000000  -0.000000
    19  B   -0.000394  -0.000247  -0.000164   0.000880  -0.000045  -0.000002
    20  F   -0.007097  -0.000879   0.000032   0.000118  -0.000001  -0.000000
    21  F   -0.019172   0.000248  -0.000025  -0.000042   0.000000  -0.000000
    22  N    0.000884   0.001345  -0.000493   0.002892   0.000004  -0.000372
    23  C   -0.109680  -0.002924  -0.016867  -0.120982   0.000645   0.015607
    24  C    0.486483  -0.094078  -0.115343   0.473057  -0.009117  -0.000545
    25  C    5.190906   0.446461  -0.039308  -0.115356  -0.000359  -0.000046
    26  C    0.446461   4.890956   0.592830  -0.072639   0.000003  -0.000012
    27  C   -0.039308   0.592830   4.964900   0.443722   0.000130   0.000019
    28  S   -0.115356  -0.072639   0.443722  15.338928  -0.005319   0.001273
    29  H   -0.000359   0.000003   0.000130  -0.005319   0.537226  -0.019000
    30  H   -0.000046  -0.000012   0.000019   0.001273  -0.019000   0.529325
    31  H    0.001485   0.000016  -0.000188  -0.004282  -0.034986  -0.015160
    32  H    0.000005  -0.000001  -0.000000   0.000018   0.000143   0.000674
    33  H    0.000000  -0.000000   0.000000  -0.000000  -0.000000   0.000001
    34  H    0.000000  -0.000000   0.000000   0.000000  -0.000000  -0.000000
    35  H   -0.000000  -0.000000   0.000000  -0.000000  -0.000000   0.000000
    36  H    0.000000   0.000000  -0.000000   0.000000   0.000000  -0.000000
    37  H    0.000000   0.000000  -0.000000   0.000000   0.000000  -0.000000
    38  H    0.000000  -0.000000   0.000000  -0.000000  -0.000000   0.000000
    39  H   -0.000000  -0.000000   0.000000  -0.000000  -0.000000   0.000000
    40  H    0.000001   0.000000  -0.000000   0.000000   0.000000  -0.000000
    41  H    0.394773  -0.003749   0.000028   0.004806  -0.000002  -0.000002
    42  H   -0.036351   0.425062  -0.031429   0.008335  -0.000000  -0.000000
    43  H    0.005535  -0.020727   0.406595  -0.025136  -0.000011   0.000001
              31         32         33         34         35         36
     1  C    0.449526  -0.001631   0.000012   0.000000   0.000000   0.000000
     2  C   -0.066445  -0.005906   0.000262   0.000000   0.000000   0.000000
     3  C    0.004792   0.377879  -0.005002  -0.000007  -0.000000  -0.000000
     4  C   -0.001120   0.000436   0.032601   0.000200  -0.000016   0.000002
     5  C   -0.000032  -0.000783   0.333868   0.002539   0.000084  -0.000008
     6  C    0.000000   0.000503  -0.003901   0.017724  -0.001794  -0.001982
     7  C   -0.000000   0.000041  -0.018663  -0.173606  -0.005453   0.014479
     8  C    0.000000  -0.000009  -0.001278   0.530802   0.000808   0.000859
     9  O   -0.000000  -0.000024   0.028071  -0.043152   0.000039   0.000010
    10  C   -0.000000   0.000005  -0.000219  -0.002044  -0.045063  -0.055782
    11  C   -0.000000   0.000000   0.000003  -0.007088   0.418957   0.434002
    12  C    0.000000  -0.000005  -0.000136   0.003176  -0.002502  -0.020358
    13  C    0.000000  -0.000000   0.000031   0.000077  -0.002074   0.010576
    14  C    0.000000   0.000000  -0.000001   0.000029  -0.003832  -0.007362
    15  C   -0.000000   0.000000   0.000000  -0.000001   0.000423  -0.001318
    16  C   -0.000000  -0.000000   0.000000   0.000000  -0.000035   0.000322
    17  S    0.000000   0.000000  -0.000001  -0.000000  -0.000127   0.000720
    18  N    0.000000   0.000009   0.002557  -0.000976  -0.000028   0.000248
    19  B    0.000063   0.000345   0.001147   0.000029  -0.000059   0.000135
    20  F    0.000001   0.000006   0.000029  -0.000000  -0.000001   0.000001
    21  F   -0.000002   0.000001   0.000033  -0.000000   0.000000  -0.000002
    22  N    0.000056   0.003912   0.003771   0.000002   0.000000   0.000000
    23  C   -0.022021   0.003417   0.000431   0.000001  -0.000000   0.000000
    24  C    0.012715   0.000168   0.000105   0.000000  -0.000000   0.000000
    25  C    0.001485   0.000005   0.000000   0.000000  -0.000000   0.000000
    26  C    0.000016  -0.000001  -0.000000  -0.000000  -0.000000   0.000000
    27  C   -0.000188  -0.000000   0.000000   0.000000   0.000000  -0.000000
    28  S   -0.004282   0.000018  -0.000000   0.000000  -0.000000   0.000000
    29  H   -0.034986   0.000143  -0.000000  -0.000000  -0.000000   0.000000
    30  H   -0.015160   0.000674   0.000001  -0.000000   0.000000  -0.000000
    31  H    0.513764  -0.000138   0.000001   0.000000   0.000000  -0.000000
    32  H   -0.000138   0.427696   0.001397  -0.000000  -0.000000   0.000000
    33  H    0.000001   0.001397   0.441652   0.001152  -0.000001   0.000002
    34  H    0.000000  -0.000000   0.001152   0.582394  -0.001004   0.000366
    35  H    0.000000  -0.000000  -0.000001  -0.001004   0.522172  -0.026628
    36  H   -0.000000   0.000000   0.000002   0.000366  -0.026628   0.522226
    37  H   -0.000000   0.000000  -0.000004  -0.001513  -0.020364  -0.020060
    38  H    0.000000   0.000000   0.000000   0.000006  -0.001667  -0.003679
    39  H    0.000000   0.000000   0.000000  -0.000000   0.000013  -0.000037
    40  H   -0.000000   0.000000  -0.000000   0.000000  -0.000001   0.000009
    41  H    0.000014   0.000001   0.000001   0.000000   0.000000  -0.000000
    42  H    0.000003   0.000000  -0.000000   0.000000  -0.000000   0.000000
    43  H   -0.000007   0.000000   0.000000   0.000000  -0.000000   0.000000
              37         38         39         40         41         42
     1  C   -0.000000   0.000000   0.000000   0.000000   0.000085   0.000008
     2  C   -0.000000  -0.000000   0.000000   0.000000   0.000943   0.000014
     3  C    0.000000   0.000000  -0.000000   0.000000  -0.000017  -0.000001
     4  C    0.000000   0.000003  -0.000000   0.000000  -0.000163   0.000001
     5  C   -0.000070  -0.000006   0.000000  -0.000000  -0.000035  -0.000000
     6  C    0.004771   0.000314   0.000001  -0.000000  -0.000120   0.000000
     7  C   -0.013724   0.000025  -0.000006  -0.000000   0.000004  -0.000000
     8  C   -0.009672  -0.000021  -0.000000  -0.000000   0.000000  -0.000000
     9  O   -0.000062  -0.000000  -0.000000  -0.000000   0.000000   0.000000
    10  C   -0.041910   0.002184   0.000025   0.000004   0.000024   0.000000
    11  C    0.430558  -0.001749   0.000052   0.000002   0.000000   0.000000
    12  C    0.012310   0.008189   0.000174  -0.000188   0.000047   0.000000
    13  C    0.000356  -0.034072   0.007033   0.003980  -0.000150  -0.000000
    14  C    0.001230   0.402842  -0.035230   0.006014   0.000003   0.000000
    15  C   -0.000053  -0.006243   0.423555  -0.022712  -0.000002  -0.000000
    16  C   -0.000000   0.000079  -0.030218   0.407723  -0.000004   0.000000
    17  S    0.000019   0.005902   0.007812  -0.026292  -0.000232   0.000011
    18  N   -0.000379   0.000141   0.000005   0.000001   0.000181  -0.000000
    19  B   -0.000009  -0.000028  -0.000014  -0.000010  -0.005209   0.000050
    20  F    0.000000   0.000059   0.000000   0.000009  -0.003713   0.000030
    21  F   -0.000000  -0.000001   0.000000  -0.000008   0.015463  -0.000029
    22  N   -0.000000  -0.000001   0.000000  -0.000000   0.001635   0.000010
    23  C    0.000000   0.000000  -0.000000   0.000000   0.012606   0.000134
    24  C    0.000000  -0.000000  -0.000000  -0.000000  -0.029214   0.006951
    25  C    0.000000   0.000000  -0.000000   0.000001   0.394773  -0.036351
    26  C    0.000000  -0.000000  -0.000000   0.000000  -0.003749   0.425062
    27  C   -0.000000   0.000000   0.000000  -0.000000   0.000028  -0.031429
    28  S    0.000000  -0.000000  -0.000000   0.000000   0.004806   0.008335
    29  H    0.000000  -0.000000  -0.000000   0.000000  -0.000002  -0.000000
    30  H   -0.000000   0.000000   0.000000  -0.000000  -0.000002  -0.000000
    31  H   -0.000000   0.000000   0.000000  -0.000000   0.000014   0.000003
    32  H    0.000000   0.000000   0.000000   0.000000   0.000001   0.000000
    33  H   -0.000004   0.000000   0.000000  -0.000000   0.000001  -0.000000
    34  H   -0.001513   0.000006  -0.000000   0.000000   0.000000   0.000000
    35  H   -0.020364  -0.001667   0.000013  -0.000001   0.000000  -0.000000
    36  H   -0.020060  -0.003679  -0.000037   0.000009  -0.000000   0.000000
    37  H    0.525162   0.000488  -0.000001   0.000000  -0.000000  -0.000000
    38  H    0.000488   0.443861   0.000750  -0.000161   0.000000  -0.000000
    39  H   -0.000001   0.000750   0.461971  -0.002585   0.000000  -0.000000
    40  H    0.000000  -0.000161  -0.002585   0.456327  -0.000001   0.000000
    41  H   -0.000000   0.000000   0.000000  -0.000001   0.422066   0.000481
    42  H   -0.000000  -0.000000  -0.000000   0.000000   0.000481   0.459796
    43  H    0.000000   0.000000   0.000000  -0.000000  -0.000147  -0.002497
              43
     1  C   -0.000016
     2  C   -0.000012
     3  C    0.000002
     4  C   -0.000001
     5  C    0.000000
     6  C   -0.000000
     7  C   -0.000000
     8  C    0.000000
     9  O    0.000000
    10  C   -0.000000
    11  C    0.000000
    12  C    0.000000
    13  C   -0.000000
    14  C   -0.000000
    15  C    0.000000
    16  C    0.000000
    17  S   -0.000000
    18  N    0.000000
    19  B    0.000021
    20  F    0.000002
    21  F    0.000000
    22  N    0.000002
    23  C   -0.000090
    24  C    0.003919
    25  C    0.005535
    26  C   -0.020727
    27  C    0.406595
    28  S   -0.025136
    29  H   -0.000011
    30  H    0.000001
    31  H   -0.000007
    32  H    0.000000
    33  H    0.000000
    34  H    0.000000
    35  H   -0.000000
    36  H    0.000000
    37  H    0.000000
    38  H    0.000000
    39  H    0.000000
    40  H   -0.000000
    41  H   -0.000147
    42  H   -0.002497
    43  H    0.449460
 Mulliken charges:
               1
     1  C   -0.437187
     2  C    0.015422
     3  C   -0.089694
     4  C   -0.008297
     5  C   -0.068204
     6  C    0.040879
     7  C    0.033472
     8  C    0.154461
     9  O   -0.393888
    10  C    0.042357
    11  C   -0.463434
    12  C    0.196181
    13  C   -0.124384
    14  C   -0.207548
    15  C   -0.176005
    16  C   -0.209377
    17  S    0.082176
    18  N   -0.057121
    19  B    0.340745
    20  F   -0.317766
    21  F   -0.332627
    22  N   -0.070283
    23  C    0.209535
    24  C   -0.100213
    25  C   -0.210140
    26  C   -0.161061
    27  C   -0.203662
    28  S    0.080719
    29  H    0.156178
    30  H    0.128166
    31  H    0.161944
    32  H    0.191842
    33  H    0.182082
    34  H    0.090896
    35  H    0.168153
    36  H    0.153258
    37  H    0.132928
    38  H    0.182783
    39  H    0.166697
    40  H    0.177889
    41  H    0.189598
    42  H    0.169421
    43  H    0.183106
 Sum of Mulliken charges =  -0.00000
 Mulliken charges with hydrogens summed into heavy atoms:
               1
     1  C    0.009101
     2  C    0.015422
     3  C    0.102148
     4  C   -0.008297
     5  C    0.113877
     6  C    0.040879
     7  C    0.033472
     8  C    0.245357
     9  O   -0.393888
    10  C    0.042357
    11  C   -0.009095
    12  C    0.196181
    13  C   -0.124384
    14  C   -0.024765
    15  C   -0.009307
    16  C   -0.031488
    17  S    0.082176
    18  N   -0.057121
    19  B    0.340745
    20  F   -0.317766
    21  F   -0.332627
    22  N   -0.070283
    23  C    0.209535
    24  C   -0.100213
    25  C   -0.020542
    26  C    0.008360
    27  C   -0.020556
    28  S    0.080719
 Electronic spatial extent (au):  <R**2>=          11947.8429
 Charge=              0.0000 electrons
 Dipole moment (field-independent basis, Debye):
    X=              1.5869    Y=             -1.1433    Z=             -1.1757  Tot=              2.2820
 Quadrupole moment (field-independent basis, Debye-Ang):
   XX=           -126.5628   YY=           -166.0435   ZZ=           -179.2147
   XY=             11.2510   XZ=              4.7445   YZ=             -1.5343
 Traceless Quadrupole moment (field-independent basis, Debye-Ang):
   XX=             30.7109   YY=             -8.7699   ZZ=            -21.9410
   XY=             11.2510   XZ=              4.7445   YZ=             -1.5343
 Octapole moment (field-independent basis, Debye-Ang**2):
  XXX=             16.2039  YYY=           -165.3636  ZZZ=             -4.3142  XYY=             84.6069
  XXY=            -38.5938  XXZ=            -51.8758  XZZ=            -11.6718  YZZ=             -3.5254
  YYZ=              8.1589  XYZ=             -4.2960
 Hexadecapole moment (field-independent basis, Debye-Ang**3):
 XXXX=          -9183.2015 YYYY=          -5455.2360 ZZZZ=           -555.2442 XXXY=           -250.8732
 XXXZ=              1.0131 YYYX=            495.9066 YYYZ=            -62.0640 ZZZX=              8.7278
 ZZZY=             -3.0762 XXYY=          -2309.0283 XXZZ=          -1814.1679 YYZZ=          -1003.1155
 XXYZ=             87.6162 YYXZ=             35.1473 ZZXY=             -2.5225
 N-N= 2.891369813782D+03 E-N=-1.043395017633D+04  KE= 1.969682641908D+03
 No NMR shielding tensors so no spin-rotation constants.
 Leave Link  601 at Thu Nov  6 07:06:30 2025, MaxMem= 30870077440 cpu:              59.7 elap:               1.1
 (Enter /public/software/gauss/g16/l9999.exe)
 1\1\GINC-CU015\SP\RM062X\def2TZVPP\C20H15B1F2N2O1S2\BAIDING\06-Nov-202
 5\0\\#p M062X/DEF2TZVPP scrf=(solvent=water) em=GD3\\Energy calculatio
 n for M100033019\\0,1\C,0,-4.67551,-2.404202,-0.022859\C,0,-3.214483,-
 2.076358,0.03932\C,0,-2.187458,-2.991005,0.118703\C,0,-0.963166,-2.275
 435,0.171663\C,0,0.330869,-2.754054,0.159733\C,0,1.434775,-1.893926,0.
 086257\C,0,2.821896,-2.182952,-0.038485\C,0,3.438343,-3.498446,-0.0400
 3\O,0,2.834257,-4.568339,0.069027\C,0,3.494704,-0.951227,-0.162202\C,0
 ,4.970676,-0.735839,-0.301373\C,0,2.500239,0.058725,-0.103589\C,0,2.75
 0983,1.491639,-0.196229\C,0,3.628282,2.091771,-1.077746\C,0,3.767596,3
 .493767,-0.88536\C,0,3.010143,3.95849,0.155904\S,0,2.098113,2.696308,0
 .909504\N,0,1.266592,-0.528032,0.048239\B,0,-0.124679,0.187553,0.19333
 1\F,0,-0.295009,1.098759,-0.837843\F,0,-0.147423,0.824702,1.44467\N,0,
 -1.245956,-0.908766,0.147814\C,0,-2.601748,-0.769763,0.071545\C,0,-3.2
 82887,0.508698,0.056518\C,0,-2.931578,1.695819,0.676167\C,0,-3.847272,
 2.752051,0.442278\C,0,-4.896148,2.381945,-0.359318\S,0,-4.792764,0.724
 032,-0.829509\H,0,-5.102357,-2.208359,-1.01283\H,0,-4.821358,-3.466245
 ,0.189794\H,0,-5.255975,-1.829023,0.705109\H,0,-2.275457,-4.069058,0.1
 3581\H,0,0.504325,-3.822248,0.16196\H,0,4.536791,-3.502533,-0.150431\H
 ,0,5.278552,-0.726072,-1.353545\H,0,5.268631,0.22179,0.132487\H,0,5.53
 6252,-1.526888,0.196564\H,0,4.140459,1.538818,-1.855936\H,0,4.398498,4
 .127383,-1.497789\H,0,2.918663,4.974153,0.518592\H,0,-2.051267,1.78779
 1,1.296129\H,0,-3.736422,3.747354,0.856259\H,0,-5.727645,2.984897,-0.7
 00177\\Version=ES64L-G16RevA.03\State=1-A\HF=-1976.9907805\RMSD=8.389e
 -09\Dipole=-0.6243462,0.4498009,-0.4625523\Quadrupole=22.8327875,-6.52
 01915,-16.3125961,8.3648541,-3.5274508,1.1407216\PG=C01 [X(C20H15B1F2N
 2O1S2)]\\@


 MAN IS THE MEASURE OF ALL THINGS.
  -- PROTAGORAS (5TH CENTURY B.C.)
 Job cpu time:       0 days  8 hours 12 minutes 34.7 seconds.
 Elapsed time:       0 days  0 hours  7 minutes 48.7 seconds.
 File lengths (MBytes):  RWF=    823 Int=      0 D2E=      0 Chk=     72 Scr=      1
 Normal termination of Gaussian 16 at Thu Nov  6 07:06:30 2025.
