 Entering Gaussian System, Link 0=g16
 Input=M100034884_reduced_sp.gjf
 Output=M100034884_reduced_sp.log
 Initial command:
 /public/software/gauss/g16/l1.exe "/public/home/baiding/1101_v2_sp/tmp_M100034884_reduced_sp_1568608/Gau-4026.inp" -scrdir="/public/home/baiding/1101_v2_sp/tmp_M100034884_reduced_sp_1568608/"
 Entering Link 1 = /public/software/gauss/g16/l1.exe PID=      4027.
  
 Copyright (c) 1988,1990,1992,1993,1995,1998,2003,2009,2016,
            Gaussian, Inc.  All Rights Reserved.
  
 This is part of the Gaussian(R) 16 program.  It is based on
 the Gaussian(R) 09 system (copyright 2009, Gaussian, Inc.),
 the Gaussian(R) 03 system (copyright 2003, Gaussian, Inc.),
 the Gaussian(R) 98 system (copyright 1998, Gaussian, Inc.),
 the Gaussian(R) 94 system (copyright 1995, Gaussian, Inc.),
 the Gaussian 92(TM) system (copyright 1992, Gaussian, Inc.),
 the Gaussian 90(TM) system (copyright 1990, Gaussian, Inc.),
 the Gaussian 88(TM) system (copyright 1988, Gaussian, Inc.),
 the Gaussian 86(TM) system (copyright 1986, Carnegie Mellon
 University), and the Gaussian 82(TM) system (copyright 1983,
 Carnegie Mellon University). Gaussian is a federally registered
 trademark of Gaussian, Inc.
  
 This software contains proprietary and confidential information,
 including trade secrets, belonging to Gaussian, Inc.
  
 This software is provided under written license and may be
 used, copied, transmitted, or stored only in accord with that
 written license.
  
 The following legend is applicable only to US Government
 contracts under FAR:
  
                    RESTRICTED RIGHTS LEGEND
  
 Use, reproduction and disclosure by the US Government is
 subject to restrictions as set forth in subparagraphs (a)
 and (c) of the Commercial Computer Software - Restricted
 Rights clause in FAR 52.227-19.
  
 Gaussian, Inc.
 340 Quinnipiac St., Bldg. 40, Wallingford CT 06492
  
  
 ---------------------------------------------------------------
 Warning -- This program may not be used in any manner that
 competes with the business of Gaussian, Inc. or will provide
 assistance to any competitor of Gaussian, Inc.  The licensee
 of this program is prohibited from giving any competitor of
 Gaussian, Inc. access to this program.  By using this program,
 the user acknowledges that Gaussian, Inc. is engaged in the
 business of creating and licensing software in the field of
 computational chemistry and represents and warrants to the
 licensee that it is not a competitor of Gaussian, Inc. and that
 it will not use this program in any manner prohibited above.
 ---------------------------------------------------------------
  

 Cite this work as:
 Gaussian 16, Revision A.03,
 M. J. Frisch, G. W. Trucks, H. B. Schlegel, G. E. Scuseria, 
 M. A. Robb, J. R. Cheeseman, G. Scalmani, V. Barone, 
 G. A. Petersson, H. Nakatsuji, X. Li, M. Caricato, A. V. Marenich, 
 J. Bloino, B. G. Janesko, R. Gomperts, B. Mennucci, H. P. Hratchian, 
 J. V. Ortiz, A. F. Izmaylov, J. L. Sonnenberg, D. Williams-Young, 
 F. Ding, F. Lipparini, F. Egidi, J. Goings, B. Peng, A. Petrone, 
 T. Henderson, D. Ranasinghe, V. G. Zakrzewski, J. Gao, N. Rega, 
 G. Zheng, W. Liang, M. Hada, M. Ehara, K. Toyota, R. Fukuda, 
 J. Hasegawa, M. Ishida, T. Nakajima, Y. Honda, O. Kitao, H. Nakai, 
 T. Vreven, K. Throssell, J. A. Montgomery, Jr., J. E. Peralta, 
 F. Ogliaro, M. J. Bearpark, J. J. Heyd, E. N. Brothers, K. N. Kudin, 
 V. N. Staroverov, T. A. Keith, R. Kobayashi, J. Normand, 
 K. Raghavachari, A. P. Rendell, J. C. Burant, S. S. Iyengar, 
 J. Tomasi, M. Cossi, J. M. Millam, M. Klene, C. Adamo, R. Cammi, 
 J. W. Ochterski, R. L. Martin, K. Morokuma, O. Farkas, 
 J. B. Foresman, and D. J. Fox, Gaussian, Inc., Wallingford CT, 2016.
 
 ******************************************
 Gaussian 16:  ES64L-G16RevA.03 25-Dec-2016
                 7-Nov-2025 
 ******************************************
 %nprocshared=64
 Will use up to   64 processors via shared memory.
 %mem=230GB
 %chk=M100034884_reduced_sp.chk
 ----------------------------------------------
 #p M062X/DEF2TZVPP scrf=(solvent=water) em=GD3
 ----------------------------------------------
 1/38=1,172=1/1;
 2/12=2,17=6,18=5,40=1/2;
 3/5=44,7=202,11=2,25=1,30=1,70=2201,72=1,74=-55,124=31/1,2,3;
 4//1;
 5/5=2,38=5,53=1/2;
 6/7=2,8=2,9=2,10=2,28=1/1;
 99/5=1,9=1/99;
 Leave Link    1 at Fri Nov  7 03:22:54 2025, MaxMem= 30870077440 cpu:              17.0 elap:               0.3
 (Enter /public/software/gauss/g16/l101.exe)
 -----------------------------------------
 Energy calculation for M100034884_reduced
 -----------------------------------------
 Symbolic Z-matrix:
 Charge = -1 Multiplicity = 2
 C                     3.17895   0.6497    0.30279 
 C                     2.6225   -0.7236    0.07291 
 C                     3.4376   -1.89166  -0.06615 
 C                     4.85004  -1.94132  -0.05993 
 C                     6.07087  -1.97714  -0.05165 
 C                     7.49301  -2.02852  -0.04486 
 C                     8.26394  -0.87072   0.19561 
 C                     9.65157  -0.92081   0.19474 
 C                     10.32816  -2.13318  -0.03133 
 N                     11.74432  -2.18579  -0.025 
 C                     12.43309  -3.00935  -0.96066 
 C                     12.0277  -3.05391  -2.30462 
 C                     12.70161  -3.86684  -3.21505 
 C                     13.79748  -4.63253  -2.80879 
 C                     14.20811  -4.58254  -1.47425 
 C                     13.52955  -3.78627  -0.55253 
 C                     12.48562  -1.41627   0.91595 
 C                     12.06952  -1.33241   2.25485 
 C                     12.7974  -0.57382   3.17057 
 C                     13.95759   0.09696   2.77525 
 C                     14.37832   0.00743   1.44595 
 C                     13.64724  -0.73404   0.5187 
 C                     9.56621  -3.29249  -0.26422 
 C                     8.17884  -3.24014  -0.2784 
 C                     2.5868   -3.00161  -0.19369 
 C                     2.96006  -4.43921  -0.33885 
 N                     1.29681  -2.56346  -0.14896 
 C                     1.28197  -1.16543  -0.00527 
 C                     0.03801  -0.46678   0.07471 
 C                     0.02255   1.01343   0.1487 
 C                     0.4775    1.80207  -0.92492 
 C                     0.44892   3.1907   -0.8641 
 C                    -0.02022   3.8599    0.284 
 C                    -0.05035   5.33472   0.3519 
 C                     0.0944    6.01532   1.57872 
 C                     0.06002   7.39872   1.6343 
 C                    -0.12338   8.18062   0.46905 
 C                    -0.15068   9.61118   0.64018 
 C                    -0.33346   10.64203  -0.24436 
 C                    -0.55398   10.49195  -1.64232 
 N                    -0.73654   10.39656  -2.7918 
 C                    -0.30954   12.0271   0.28778 
 O                    -0.12613   12.31777   1.46123 
 O                    -0.51714   12.95115  -0.67222 
 C                    -0.26687   7.49755  -0.76188 
 C                    -0.22956   6.1147   -0.81263 
 C                    -0.46342   3.07105   1.36433 
 C                    -0.45028   1.68271   1.29328 
 C                    -1.19178  -1.19466   0.07975 
 C                    -2.54109  -0.77413   0.04778 
 C                    -3.12619   0.60384  -0.03764 
 C                    -3.33238  -1.96654   0.06068 
 C                    -4.74368  -2.0419    0.0491 
 C                    -5.96385  -2.09586   0.03742 
 C                    -7.38521  -2.16475   0.02546 
 C                    -8.05494  -3.40707  -0.00542 
 C                    -9.44166  -3.47357  -0.02483 
 C                    -10.21948  -2.30152   0.00108 
 N                    -11.6344  -2.37     -0.01106 
 C                    -12.30829  -3.39586   0.71151 
 C                    -13.39533  -4.07313   0.13556 
 C                    -14.06101  -5.06865   0.8496 
 C                    -13.64626  -5.41762   2.13732 
 C                    -12.55987  -4.75046   2.70911 
 C                    -11.89917  -3.74125   2.00986 
 C                    -12.3929  -1.41448  -0.74576 
 C                    -11.99427  -1.02456  -2.0348 
 C                    -12.73916  -0.0847   -2.74594 
 C                    -13.89893   0.46723  -2.19584 
 C                    -14.30251   0.07338  -0.91756 
 C                    -13.55445  -0.85246  -0.19145 
 C                    -9.55869  -1.0601    0.0395 
 C                    -8.17189  -0.99278   0.04397 
 C                    -2.45943  -3.06646   0.06972 
 C                    -2.80369  -4.51857   0.06053 
 N                    -1.17849  -2.60016   0.07382 
 B                     0.06828  -3.48719  -0.08582 
 F                     0.17951  -4.37824   1.00636 
 F                    -0.02605  -4.25894  -1.26657 
 H                     3.1637    1.27576  -0.59788 
 H                     2.62841   1.19478   1.07471 
 H                     4.2223    0.57318   0.62454 
 H                     7.76274   0.07618   0.36939 
 H                     10.21907  -0.01279   0.36757 
 H                     11.18747  -2.4504   -2.63156 
 H                     12.37502  -3.88882  -4.25066 
 H                     14.32407  -5.25887  -3.5221 
 H                     15.05388  -5.17725  -1.14153 
 H                     13.84581  -3.76501   0.48505 
 H                     11.17897  -1.8635    2.57409 
 H                     12.46152  -0.5206    4.20207 
 H                     14.52567   0.68073   3.49281 
 H                     15.27415   0.52888   1.12143 
 H                     13.97294  -0.78623  -0.51484 
 H                     10.06687  -4.23991  -0.43186 
 H                     7.61108  -4.14768  -0.45735 
 H                     2.51435  -4.87754  -1.23806 
 H                     4.0457   -4.53899  -0.40239 
 H                     2.60491  -5.03092   0.51191 
 H                     0.84941   1.31482  -1.82108 
 H                     0.81638   3.76143  -1.711 
 H                     0.26059   5.45456   2.49212 
 H                     0.18368   7.89994   2.58989 
 H                    -0.00338   9.94714   1.66405 
 H                    -0.49324   13.83003  -0.25209 
 H                    -0.41684   8.04736  -1.6822 
 H                    -0.36908   5.62412  -1.76988 
 H                    -0.84578   3.54848   2.26089 
 H                    -0.80598   1.10179   2.13877 
 H                    -2.5884    1.23776  -0.74825 
 H                    -4.16814   0.53953  -0.36641 
 H                    -3.12274   1.13294   0.92327 
 H                    -7.47506  -4.3242   -0.02963 
 H                    -9.92948  -4.44142  -0.06434 
 H                    -13.71391  -3.81831  -0.86974 
 H                    -14.89955  -5.58258   0.38877 
 H                    -14.16242  -6.19812   2.68758 
 H                    -12.2308  -5.00464   3.71249 
 H                    -11.06668  -3.21732   2.46756 
 H                    -11.10403  -1.46007  -2.47617 
 H                    -12.41689   0.20513  -3.74185 
 H                    -14.47996   1.19358  -2.75549 
 H                    -15.19791   0.4984   -0.47339 
 H                    -13.86633  -1.14198   0.80657 
 H                    -10.13782  -0.14364   0.06952 
 H                    -7.68352  -0.0241    0.07744 
 H                    -2.44208  -5.0082   -0.85032 
 H                    -2.34416  -5.04186   0.90571 
 H                    -3.88678  -4.6464    0.11684 
 
 ITRead=  0  0  0  0  0  0  0  0  0  0  0  0  0  0  0  0  0  0  0  0
 ITRead=  0  0  0  0  0  0  0  0  0  0  0  0  0  0  0  0  0  0  0  0
 ITRead=  0  0  0  0  0  0  0  0  0  0  0  0  0  0  0  0  0  0  0  0
 ITRead=  0  0  0  0  0  0  0  0  0  0  0  0  0  0  0  0  0  0  0  0
 ITRead=  0  0  0  0  0  0  0  0  0  0  0  0  0  0  0  0  0  0  0  0
 ITRead=  0  0  0  0  0  0  0  0  0  0  0  0  0  0  0  0  0  0  0  0
 ITRead=  0  0  0  0  0  0  0  0  0
 MicOpt= -1 -1 -1 -1 -1 -1 -1 -1 -1 -1 -1 -1 -1 -1 -1 -1 -1 -1 -1 -1
 MicOpt= -1 -1 -1 -1 -1 -1 -1 -1 -1 -1 -1 -1 -1 -1 -1 -1 -1 -1 -1 -1
 MicOpt= -1 -1 -1 -1 -1 -1 -1 -1 -1 -1 -1 -1 -1 -1 -1 -1 -1 -1 -1 -1
 MicOpt= -1 -1 -1 -1 -1 -1 -1 -1 -1 -1 -1 -1 -1 -1 -1 -1 -1 -1 -1 -1
 MicOpt= -1 -1 -1 -1 -1 -1 -1 -1 -1 -1 -1 -1 -1 -1 -1 -1 -1 -1 -1 -1
 MicOpt= -1 -1 -1 -1 -1 -1 -1 -1 -1 -1 -1 -1 -1 -1 -1 -1 -1 -1 -1 -1
 MicOpt= -1 -1 -1 -1 -1 -1 -1 -1 -1
 NAtoms=    129 NQM=      129 NQMF=       0 NMMI=      0 NMMIF=      0
                NMic=       0 NMicF=      0.
                    Isotopes and Nuclear Properties:
 (Nuclear quadrupole moments (NQMom) in fm**2, nuclear magnetic moments (NMagM)
  in nuclear magnetons)

  Atom         1           2           3           4           5           6           7           8           9          10
 IAtWgt=          12          12          12          12          12          12          12          12          12          14
 AtmWgt=  12.0000000  12.0000000  12.0000000  12.0000000  12.0000000  12.0000000  12.0000000  12.0000000  12.0000000  14.0030740
 NucSpn=           0           0           0           0           0           0           0           0           0           2
 AtZEff=  -0.0000000  -0.0000000  -0.0000000  -0.0000000  -0.0000000  -0.0000000  -0.0000000  -0.0000000  -0.0000000  -0.0000000
 NQMom=    0.0000000   0.0000000   0.0000000   0.0000000   0.0000000   0.0000000   0.0000000   0.0000000   0.0000000   2.0440000
 NMagM=    0.0000000   0.0000000   0.0000000   0.0000000   0.0000000   0.0000000   0.0000000   0.0000000   0.0000000   0.4037610
 AtZNuc=   6.0000000   6.0000000   6.0000000   6.0000000   6.0000000   6.0000000   6.0000000   6.0000000   6.0000000   7.0000000

  Atom        11          12          13          14          15          16          17          18          19          20
 IAtWgt=          12          12          12          12          12          12          12          12          12          12
 AtmWgt=  12.0000000  12.0000000  12.0000000  12.0000000  12.0000000  12.0000000  12.0000000  12.0000000  12.0000000  12.0000000
 NucSpn=           0           0           0           0           0           0           0           0           0           0
 AtZEff=  -0.0000000  -0.0000000  -0.0000000  -0.0000000  -0.0000000  -0.0000000  -0.0000000  -0.0000000  -0.0000000  -0.0000000
 NQMom=    0.0000000   0.0000000   0.0000000   0.0000000   0.0000000   0.0000000   0.0000000   0.0000000   0.0000000   0.0000000
 NMagM=    0.0000000   0.0000000   0.0000000   0.0000000   0.0000000   0.0000000   0.0000000   0.0000000   0.0000000   0.0000000
 AtZNuc=   6.0000000   6.0000000   6.0000000   6.0000000   6.0000000   6.0000000   6.0000000   6.0000000   6.0000000   6.0000000

  Atom        21          22          23          24          25          26          27          28          29          30
 IAtWgt=          12          12          12          12          12          12          14          12          12          12
 AtmWgt=  12.0000000  12.0000000  12.0000000  12.0000000  12.0000000  12.0000000  14.0030740  12.0000000  12.0000000  12.0000000
 NucSpn=           0           0           0           0           0           0           2           0           0           0
 AtZEff=  -0.0000000  -0.0000000  -0.0000000  -0.0000000  -0.0000000  -0.0000000  -0.0000000  -0.0000000  -0.0000000  -0.0000000
 NQMom=    0.0000000   0.0000000   0.0000000   0.0000000   0.0000000   0.0000000   2.0440000   0.0000000   0.0000000   0.0000000
 NMagM=    0.0000000   0.0000000   0.0000000   0.0000000   0.0000000   0.0000000   0.4037610   0.0000000   0.0000000   0.0000000
 AtZNuc=   6.0000000   6.0000000   6.0000000   6.0000000   6.0000000   6.0000000   7.0000000   6.0000000   6.0000000   6.0000000

  Atom        31          32          33          34          35          36          37          38          39          40
 IAtWgt=          12          12          12          12          12          12          12          12          12          12
 AtmWgt=  12.0000000  12.0000000  12.0000000  12.0000000  12.0000000  12.0000000  12.0000000  12.0000000  12.0000000  12.0000000
 NucSpn=           0           0           0           0           0           0           0           0           0           0
 AtZEff=  -0.0000000  -0.0000000  -0.0000000  -0.0000000  -0.0000000  -0.0000000  -0.0000000  -0.0000000  -0.0000000  -0.0000000
 NQMom=    0.0000000   0.0000000   0.0000000   0.0000000   0.0000000   0.0000000   0.0000000   0.0000000   0.0000000   0.0000000
 NMagM=    0.0000000   0.0000000   0.0000000   0.0000000   0.0000000   0.0000000   0.0000000   0.0000000   0.0000000   0.0000000
 AtZNuc=   6.0000000   6.0000000   6.0000000   6.0000000   6.0000000   6.0000000   6.0000000   6.0000000   6.0000000   6.0000000

  Atom        41          42          43          44          45          46          47          48          49          50
 IAtWgt=          14          12          16          16          12          12          12          12          12          12
 AtmWgt=  14.0030740  12.0000000  15.9949146  15.9949146  12.0000000  12.0000000  12.0000000  12.0000000  12.0000000  12.0000000
 NucSpn=           2           0           0           0           0           0           0           0           0           0
 AtZEff=  -0.0000000  -0.0000000  -0.0000000  -0.0000000  -0.0000000  -0.0000000  -0.0000000  -0.0000000  -0.0000000  -0.0000000
 NQMom=    2.0440000   0.0000000   0.0000000   0.0000000   0.0000000   0.0000000   0.0000000   0.0000000   0.0000000   0.0000000
 NMagM=    0.4037610   0.0000000   0.0000000   0.0000000   0.0000000   0.0000000   0.0000000   0.0000000   0.0000000   0.0000000
 AtZNuc=   7.0000000   6.0000000   8.0000000   8.0000000   6.0000000   6.0000000   6.0000000   6.0000000   6.0000000   6.0000000

  Atom        51          52          53          54          55          56          57          58          59          60
 IAtWgt=          12          12          12          12          12          12          12          12          14          12
 AtmWgt=  12.0000000  12.0000000  12.0000000  12.0000000  12.0000000  12.0000000  12.0000000  12.0000000  14.0030740  12.0000000
 NucSpn=           0           0           0           0           0           0           0           0           2           0
 AtZEff=  -0.0000000  -0.0000000  -0.0000000  -0.0000000  -0.0000000  -0.0000000  -0.0000000  -0.0000000  -0.0000000  -0.0000000
 NQMom=    0.0000000   0.0000000   0.0000000   0.0000000   0.0000000   0.0000000   0.0000000   0.0000000   2.0440000   0.0000000
 NMagM=    0.0000000   0.0000000   0.0000000   0.0000000   0.0000000   0.0000000   0.0000000   0.0000000   0.4037610   0.0000000
 AtZNuc=   6.0000000   6.0000000   6.0000000   6.0000000   6.0000000   6.0000000   6.0000000   6.0000000   7.0000000   6.0000000

  Atom        61          62          63          64          65          66          67          68          69          70
 IAtWgt=          12          12          12          12          12          12          12          12          12          12
 AtmWgt=  12.0000000  12.0000000  12.0000000  12.0000000  12.0000000  12.0000000  12.0000000  12.0000000  12.0000000  12.0000000
 NucSpn=           0           0           0           0           0           0           0           0           0           0
 AtZEff=  -0.0000000  -0.0000000  -0.0000000  -0.0000000  -0.0000000  -0.0000000  -0.0000000  -0.0000000  -0.0000000  -0.0000000
 NQMom=    0.0000000   0.0000000   0.0000000   0.0000000   0.0000000   0.0000000   0.0000000   0.0000000   0.0000000   0.0000000
 NMagM=    0.0000000   0.0000000   0.0000000   0.0000000   0.0000000   0.0000000   0.0000000   0.0000000   0.0000000   0.0000000
 AtZNuc=   6.0000000   6.0000000   6.0000000   6.0000000   6.0000000   6.0000000   6.0000000   6.0000000   6.0000000   6.0000000

  Atom        71          72          73          74          75          76          77          78          79          80
 IAtWgt=          12          12          12          12          12          14          11          19          19           1
 AtmWgt=  12.0000000  12.0000000  12.0000000  12.0000000  12.0000000  14.0030740  11.0093053  18.9984033  18.9984033   1.0078250
 NucSpn=           0           0           0           0           0           2           3           1           1           1
 AtZEff=  -0.0000000  -0.0000000  -0.0000000  -0.0000000  -0.0000000  -0.0000000  -0.0000000  -0.0000000  -0.0000000  -0.0000000
 NQMom=    0.0000000   0.0000000   0.0000000   0.0000000   0.0000000   2.0440000   4.0590000   0.0000000   0.0000000   0.0000000
 NMagM=    0.0000000   0.0000000   0.0000000   0.0000000   0.0000000   0.4037610   2.6886370   2.6288670   2.6288670   2.7928460
 AtZNuc=   6.0000000   6.0000000   6.0000000   6.0000000   6.0000000   7.0000000   5.0000000   9.0000000   9.0000000   1.0000000

  Atom        81          82          83          84          85          86          87          88          89          90
 IAtWgt=           1           1           1           1           1           1           1           1           1           1
 AtmWgt=   1.0078250   1.0078250   1.0078250   1.0078250   1.0078250   1.0078250   1.0078250   1.0078250   1.0078250   1.0078250
 NucSpn=           1           1           1           1           1           1           1           1           1           1
 AtZEff=  -0.0000000  -0.0000000  -0.0000000  -0.0000000  -0.0000000  -0.0000000  -0.0000000  -0.0000000  -0.0000000  -0.0000000
 NQMom=    0.0000000   0.0000000   0.0000000   0.0000000   0.0000000   0.0000000   0.0000000   0.0000000   0.0000000   0.0000000
 NMagM=    2.7928460   2.7928460   2.7928460   2.7928460   2.7928460   2.7928460   2.7928460   2.7928460   2.7928460   2.7928460
 AtZNuc=   1.0000000   1.0000000   1.0000000   1.0000000   1.0000000   1.0000000   1.0000000   1.0000000   1.0000000   1.0000000

  Atom        91          92          93          94          95          96          97          98          99         100
 IAtWgt=           1           1           1           1           1           1           1           1           1           1
 AtmWgt=   1.0078250   1.0078250   1.0078250   1.0078250   1.0078250   1.0078250   1.0078250   1.0078250   1.0078250   1.0078250
 NucSpn=           1           1           1           1           1           1           1           1           1           1
 AtZEff=  -0.0000000  -0.0000000  -0.0000000  -0.0000000  -0.0000000  -0.0000000  -0.0000000  -0.0000000  -0.0000000  -0.0000000
 NQMom=    0.0000000   0.0000000   0.0000000   0.0000000   0.0000000   0.0000000   0.0000000   0.0000000   0.0000000   0.0000000
 NMagM=    2.7928460   2.7928460   2.7928460   2.7928460   2.7928460   2.7928460   2.7928460   2.7928460   2.7928460   2.7928460
 AtZNuc=   1.0000000   1.0000000   1.0000000   1.0000000   1.0000000   1.0000000   1.0000000   1.0000000   1.0000000   1.0000000

  Atom       101         102         103         104         105         106         107         108         109         110
 IAtWgt=           1           1           1           1           1           1           1           1           1           1
 AtmWgt=   1.0078250   1.0078250   1.0078250   1.0078250   1.0078250   1.0078250   1.0078250   1.0078250   1.0078250   1.0078250
 NucSpn=           1           1           1           1           1           1           1           1           1           1
 AtZEff=  -0.0000000  -0.0000000  -0.0000000  -0.0000000  -0.0000000  -0.0000000  -0.0000000  -0.0000000  -0.0000000  -0.0000000
 NQMom=    0.0000000   0.0000000   0.0000000   0.0000000   0.0000000   0.0000000   0.0000000   0.0000000   0.0000000   0.0000000
 NMagM=    2.7928460   2.7928460   2.7928460   2.7928460   2.7928460   2.7928460   2.7928460   2.7928460   2.7928460   2.7928460
 AtZNuc=   1.0000000   1.0000000   1.0000000   1.0000000   1.0000000   1.0000000   1.0000000   1.0000000   1.0000000   1.0000000

  Atom       111         112         113         114         115         116         117         118         119         120
 IAtWgt=           1           1           1           1           1           1           1           1           1           1
 AtmWgt=   1.0078250   1.0078250   1.0078250   1.0078250   1.0078250   1.0078250   1.0078250   1.0078250   1.0078250   1.0078250
 NucSpn=           1           1           1           1           1           1           1           1           1           1
 AtZEff=  -0.0000000  -0.0000000  -0.0000000  -0.0000000  -0.0000000  -0.0000000  -0.0000000  -0.0000000  -0.0000000  -0.0000000
 NQMom=    0.0000000   0.0000000   0.0000000   0.0000000   0.0000000   0.0000000   0.0000000   0.0000000   0.0000000   0.0000000
 NMagM=    2.7928460   2.7928460   2.7928460   2.7928460   2.7928460   2.7928460   2.7928460   2.7928460   2.7928460   2.7928460
 AtZNuc=   1.0000000   1.0000000   1.0000000   1.0000000   1.0000000   1.0000000   1.0000000   1.0000000   1.0000000   1.0000000

  Atom       121         122         123         124         125         126         127         128         129
 IAtWgt=           1           1           1           1           1           1           1           1           1
 AtmWgt=   1.0078250   1.0078250   1.0078250   1.0078250   1.0078250   1.0078250   1.0078250   1.0078250   1.0078250
 NucSpn=           1           1           1           1           1           1           1           1           1
 AtZEff=  -0.0000000  -0.0000000  -0.0000000  -0.0000000  -0.0000000  -0.0000000  -0.0000000  -0.0000000  -0.0000000
 NQMom=    0.0000000   0.0000000   0.0000000   0.0000000   0.0000000   0.0000000   0.0000000   0.0000000   0.0000000
 NMagM=    2.7928460   2.7928460   2.7928460   2.7928460   2.7928460   2.7928460   2.7928460   2.7928460   2.7928460
 AtZNuc=   1.0000000   1.0000000   1.0000000   1.0000000   1.0000000   1.0000000   1.0000000   1.0000000   1.0000000
 Leave Link  101 at Fri Nov  7 03:22:54 2025, MaxMem= 30870077440 cpu:               4.6 elap:               0.1
 (Enter /public/software/gauss/g16/l202.exe)
 Stoichiometry    C69H50BF2N5O2(1-,2)
 Framework group  C1[X(C69H50BF2N5O2)]
 Deg. of freedom   381
 Full point group                 C1      NOp   1
 Largest Abelian subgroup         C1      NOp   1
 Largest concise Abelian subgroup C1      NOp   1
                         Standard orientation:                         
 ---------------------------------------------------------------------
 Center     Atomic      Atomic             Coordinates (Angstroms)
 Number     Number       Type             X           Y           Z
 ---------------------------------------------------------------------
      1          6           0       -3.178948    0.649697   -0.302791
      2          6           0       -2.622503   -0.723597   -0.072914
      3          6           0       -3.437599   -1.891658    0.066153
      4          6           0       -4.850035   -1.941323    0.059927
      5          6           0       -6.070872   -1.977137    0.051654
      6          6           0       -7.493014   -2.028522    0.044855
      7          6           0       -8.263936   -0.870717   -0.195605
      8          6           0       -9.651569   -0.920811   -0.194736
      9          6           0      -10.328155   -2.133179    0.031333
     10          7           0      -11.744315   -2.185791    0.024998
     11          6           0      -12.433095   -3.009354    0.960656
     12          6           0      -12.027705   -3.053915    2.304619
     13          6           0      -12.701611   -3.866841    3.215054
     14          6           0      -13.797475   -4.632530    2.808794
     15          6           0      -14.208114   -4.582538    1.474253
     16          6           0      -13.529550   -3.786272    0.552526
     17          6           0      -12.485621   -1.416268   -0.915946
     18          6           0      -12.069516   -1.332408   -2.254852
     19          6           0      -12.797398   -0.573820   -3.170567
     20          6           0      -13.957592    0.096961   -2.775245
     21          6           0      -14.378323    0.007426   -1.445945
     22          6           0      -13.647238   -0.734035   -0.518696
     23          6           0       -9.566205   -3.292487    0.264221
     24          6           0       -8.178841   -3.240143    0.278402
     25          6           0       -2.586799   -3.001607    0.193692
     26          6           0       -2.960064   -4.439214    0.338846
     27          7           0       -1.296813   -2.563458    0.148958
     28          6           0       -1.281972   -1.165426    0.005266
     29          6           0       -0.038012   -0.466783   -0.074708
     30          6           0       -0.022553    1.013429   -0.148703
     31          6           0       -0.477496    1.802066    0.924923
     32          6           0       -0.448916    3.190704    0.864095
     33          6           0        0.020219    3.859897   -0.283999
     34          6           0        0.050348    5.334719   -0.351896
     35          6           0       -0.094395    6.015316   -1.578718
     36          6           0       -0.060022    7.398723   -1.634297
     37          6           0        0.123382    8.180620   -0.469048
     38          6           0        0.150677    9.611177   -0.640179
     39          6           0        0.333464   10.642029    0.244364
     40          6           0        0.553983   10.491953    1.642323
     41          7           0        0.736535   10.396563    2.791800
     42          6           0        0.309536   12.027096   -0.287784
     43          8           0        0.126131   12.317772   -1.461228
     44          8           0        0.517138   12.951155    0.672217
     45          6           0        0.266869    7.497548    0.761878
     46          6           0        0.229557    6.114703    0.812634
     47          6           0        0.463421    3.071054   -1.364328
     48          6           0        0.450276    1.682712   -1.293280
     49          6           0        1.191782   -1.194659   -0.079749
     50          6           0        2.541094   -0.774128   -0.047776
     51          6           0        3.126187    0.603842    0.037637
     52          6           0        3.332382   -1.966535   -0.060682
     53          6           0        4.743683   -2.041898   -0.049099
     54          6           0        5.963849   -2.095857   -0.037416
     55          6           0        7.385206   -2.164750   -0.025463
     56          6           0        8.054937   -3.407066    0.005423
     57          6           0        9.441662   -3.473572    0.024833
     58          6           0       10.219478   -2.301523   -0.001079
     59          7           0       11.634396   -2.369998    0.011056
     60          6           0       12.308291   -3.395856   -0.711506
     61          6           0       13.395330   -4.073128   -0.135563
     62          6           0       14.061011   -5.068648   -0.849600
     63          6           0       13.646255   -5.417620   -2.137319
     64          6           0       12.559871   -4.750457   -2.709106
     65          6           0       11.899175   -3.741249   -2.009859
     66          6           0       12.392898   -1.414481    0.745760
     67          6           0       11.994269   -1.024562    2.034797
     68          6           0       12.739155   -0.084700    2.745938
     69          6           0       13.898926    0.467228    2.195836
     70          6           0       14.302507    0.073383    0.917555
     71          6           0       13.554452   -0.852463    0.191452
     72          6           0        9.558685   -1.060098   -0.039500
     73          6           0        8.171889   -0.992775   -0.043970
     74          6           0        2.459433   -3.066459   -0.069722
     75          6           0        2.803689   -4.518572   -0.060528
     76          7           0        1.178486   -2.600156   -0.073823
     77          5           0       -0.068279   -3.487186    0.085816
     78          9           0       -0.179511   -4.378240   -1.006360
     79          9           0        0.026045   -4.258942    1.266568
     80          1           0       -3.163701    1.275756    0.597876
     81          1           0       -2.628409    1.194780   -1.074707
     82          1           0       -4.222297    0.573180   -0.624537
     83          1           0       -7.762736    0.076176   -0.369388
     84          1           0      -10.219070   -0.012794   -0.367572
     85          1           0      -11.187467   -2.450401    2.631562
     86          1           0      -12.375021   -3.888823    4.250658
     87          1           0      -14.324069   -5.258872    3.522102
     88          1           0      -15.053884   -5.177246    1.141530
     89          1           0      -13.845811   -3.765005   -0.485045
     90          1           0      -11.178967   -1.863502   -2.574091
     91          1           0      -12.461517   -0.520595   -4.202070
     92          1           0      -14.525672    0.680728   -3.492809
     93          1           0      -15.274145    0.528875   -1.121425
     94          1           0      -13.972939   -0.786228    0.514843
     95          1           0      -10.066871   -4.239908    0.431862
     96          1           0       -7.611079   -4.147684    0.457352
     97          1           0       -2.514346   -4.877541    1.238056
     98          1           0       -4.045700   -4.538985    0.402387
     99          1           0       -2.604909   -5.030921   -0.511906
    100          1           0       -0.849411    1.314819    1.821081
    101          1           0       -0.816375    3.761433    1.710999
    102          1           0       -0.260587    5.454558   -2.492116
    103          1           0       -0.183681    7.899936   -2.589892
    104          1           0        0.003376    9.947135   -1.664053
    105          1           0        0.493239   13.830027    0.252094
    106          1           0        0.416843    8.047358    1.682198
    107          1           0        0.369081    5.624116    1.769875
    108          1           0        0.845777    3.548484   -2.260888
    109          1           0        0.805983    1.101794   -2.138772
    110          1           0        2.588400    1.237761    0.748248
    111          1           0        4.168136    0.539530    0.366414
    112          1           0        3.122737    1.132935   -0.923268
    113          1           0        7.475056   -4.324196    0.029626
    114          1           0        9.929482   -4.441418    0.064336
    115          1           0       13.713907   -3.818307    0.869744
    116          1           0       14.899554   -5.582576   -0.388767
    117          1           0       14.162418   -6.198115   -2.687577
    118          1           0       12.230803   -5.004641   -3.712493
    119          1           0       11.066676   -3.217315   -2.467555
    120          1           0       11.104028   -1.460072    2.476172
    121          1           0       12.416890    0.205128    3.741849
    122          1           0       14.479959    1.193580    2.755488
    123          1           0       15.197908    0.498396    0.473385
    124          1           0       13.866333   -1.141978   -0.806569
    125          1           0       10.137817   -0.143641   -0.069522
    126          1           0        7.683522   -0.024104   -0.077439
    127          1           0        2.442084   -5.008200    0.850322
    128          1           0        2.344159   -5.041864   -0.905705
    129          1           0        3.886784   -4.646399   -0.116837
 ---------------------------------------------------------------------
 Rotational constants (GHZ):           0.0208474           0.0068658           0.0053425
 Leave Link  202 at Fri Nov  7 03:22:55 2025, MaxMem= 30870077440 cpu:               0.2 elap:               0.0
 (Enter /public/software/gauss/g16/l301.exe)
 Standard basis: def2TZVPP (5D, 7F)
 Ernie: Thresh=  0.10000D-02 Tol=  0.10000D-05 Strict=F.
 There are  3594 symmetry adapted cartesian basis functions of A   symmetry.
 There are  3149 symmetry adapted basis functions of A   symmetry.
  3149 basis functions,  4879 primitive gaussians,  3594 cartesian basis functions
   270 alpha electrons      269 beta electrons
       nuclear repulsion energy     10150.8764254900 Hartrees.
 IExCor= 4336 DFT=T Ex+Corr=M062X ExCW=0 ScaHFX=  0.540000
 ScaDFX=  1.000000  1.000000  1.000000  1.000000 ScalE2=  1.000000  1.000000
 IRadAn=      5 IRanWt=     -1 IRanGd=            0 ICorTp=0 IEmpDi=131
 NAtoms=  129 NActive=  129 NUniq=  129 SFac= 1.00D+00 NAtFMM=   60 NAOKFM=T Big=T
 Integral buffers will be    131072 words long.
 Raffenetti 2 integral format.
 Two-electron integral symmetry is turned on.
 R6Disp:  Grimme-D3 Dispersion energy=       -0.0107633710 Hartrees.
 Nuclear repulsion after empirical dispersion term =    10150.8656621190 Hartrees.
 ------------------------------------------------------------------------------
 Polarizable Continuum Model (PCM)
 =================================
 Model                : PCM.
 Atomic radii         : UFF (Universal Force Field).
 Polarization charges : Total charges.
 Charge compensation  : None.
 Solution method      : On-the-fly selection.
 Cavity type          : Scaled VdW (van der Waals Surface) (Alpha=1.100).
 Cavity algorithm     : GePol (No added spheres)
                        Default sphere list used, NSphG=  129.
                        Lebedev-Laikov grids with approx.  5.0 points / Ang**2.
                        Smoothing algorithm: York/Karplus (Gamma=1.0000).
                        Polarization charges: spherical gaussians, with
                                              point-specific exponents (IZeta= 3).
                        Self-potential: point-specific (ISelfS= 7).
                        Self-field    : sphere-specific E.n sum rule (ISelfD= 2).
 Solvent              : Water, Eps=  78.355300 Eps(inf)=   1.777849
 ------------------------------------------------------------------------------
 GePol: Number of generator spheres                  =     129
 GePol: Total number of spheres                      =     129
 GePol: Number of exposed spheres                    =     129 (100.00%)
 GePol: Number of points                             =    9497
 GePol: Average weight of points                     =       0.13
 GePol: Minimum weight of points                     =   0.44D-10
 GePol: Maximum weight of points                     =    0.20577
 GePol: Number of points with low weight             =     629
 GePol: Fraction of low-weight points (<1% of avg)   =       6.62%
 GePol: Cavity surface area                          =   1201.972 Ang**2
 GePol: Cavity volume                                =   1394.920 Ang**3
 Leave Link  301 at Fri Nov  7 03:22:55 2025, MaxMem= 30870077440 cpu:               4.7 elap:               0.1
 (Enter /public/software/gauss/g16/l302.exe)
 NPDir=0 NMtPBC=     1 NCelOv=     1 NCel=       1 NClECP=     1 NCelD=      1
         NCelK=      1 NCelE2=     1 NClLst=     1 CellRange=     0.0.
 One-electron integrals computed using PRISM.
 One-electron integral symmetry used in STVInt
   1 Symmetry operations used in ECPInt.
 ECPInt:  NShTT=  683865 NPrTT= 1963078 LenC2=  264862 LenP2D=  500218.
 LDataN:  DoStor=T MaxTD1= 6 Len=  172
 Number of processors reduced to  54 by ecpmxn.
 NBasis=  3149 RedAO= T EigKep=  3.94D-06  NBF=  3149
 NBsUse=  3149 1.00D-06 EigRej= -1.00D+00 NBFU=  3149
 Precomputing XC quadrature grid using
 IXCGrd= 4 IRadAn=           5 IRanWt=          -1 IRanGd=           0 AccXCQ= 0.00D+00.
 Generated NRdTot=       0 NPtTot=           0 NUsed=           0 NTot=          32
 NSgBfM=  2381  2358  2369  2375  2381 MxSgAt=   129 MxSgA2=   129.
 Leave Link  302 at Fri Nov  7 03:23:36 2025, MaxMem= 30870077440 cpu:            2661.0 elap:              41.8
 (Enter /public/software/gauss/g16/l303.exe)
 DipDrv:  MaxL=1.
 Leave Link  303 at Fri Nov  7 03:23:38 2025, MaxMem= 30870077440 cpu:              66.3 elap:               1.1
 (Enter /public/software/gauss/g16/l401.exe)
 ExpMin= 6.06D-02 ExpMax= 3.55D+04 ExpMxC= 1.21D+03 IAcc=3 IRadAn=         5 AccDes= 0.00D+00
 Harris functional with IExCor= 1009 and IRadAn=       5 diagonalized for initial guess.
 HarFok:  IExCor= 1009 AccDes= 0.00D+00 IRadAn=         5 IDoV= 1 UseB2=F ITyADJ=14
 ICtDFT=  3500011 ScaDFX=  1.000000  1.000000  1.000000  1.000000
 FoFCou: FMM=F IPFlag=           0 FMFlag=      100000 FMFlg1=        2001
         NFxFlg=           0 DoJE=T BraDBF=F KetDBF=T FulRan=T
         wScrn=  0.000000 ICntrl=       500 IOpCl=  0 I1Cent=   200000004 NGrid=           0
         NMat0=    1 NMatS0=      1 NMatT0=    0 NMatD0=    1 NMtDS0=    0 NMtDT0=    0
 Petite list used in FoFCou.
 Harris En= -3306.85347740697    
 JPrj=0 DoOrth=F DoCkMO=F.
 Initial guess <Sx>= 0.0000 <Sy>= 0.0000 <Sz>= 0.5000 <S**2>= 0.7500 S= 0.5000
 Leave Link  401 at Fri Nov  7 03:24:07 2025, MaxMem= 30870077440 cpu:            1863.7 elap:              29.3
 (Enter /public/software/gauss/g16/l502.exe)
 Integral symmetry usage will be decided dynamically.
 UHF open shell SCF:
 Using DIIS extrapolation, IDIIS=  1040.
 NGot= 30870077440 LenX= 30843983699 LenY= 30831063269
 Requested convergence on RMS density matrix=1.00D-08 within 128 cycles.
 Requested convergence on MAX density matrix=1.00D-06.
 Requested convergence on             energy=1.00D-06.
 No special actions if energy rises.
 Fock matrices will be formed incrementally for  20 cycles.

 Cycle   1  Pass 1  IDiag  1:
 FoFJK:  IHMeth= 1 ICntrl=       0 DoSepK=F KAlg= 0 I1Cent=           0 FoldK=F
 IRaf= 350000000 NMat=       1 IRICut=       1 DoRegI=T DoRafI=F ISym2E= 0 IDoP0=0 IntGTp=1.
 FoFCou: FMM=T IPFlag=           0 FMFlag=      100000 FMFlg1=        2001
         NFxFlg=           0 DoJE=F BraDBF=F KetDBF=F FulRan=T
         wScrn=  0.000000 ICntrl=         0 IOpCl=  1 I1Cent=           0 NGrid=           0
         NMat0=    1 NMatS0=      1 NMatT0=    0 NMatD0=    1 NMtDS0=    0 NMtDT0=    0
 Symmetry not used in FoFCou.
 FMM levels:  10  Number of levels for PrismC:   9
 Inv3:  Mode=1 IEnd=   270579027.
 Iteration    1 A*A^-1 deviation from unit magnitude is 2.13D-14 for   2234.
 Iteration    1 A*A^-1 deviation from orthogonality  is 7.25D-15 for   8517    263.
 Iteration    1 A^-1*A deviation from unit magnitude is 2.13D-14 for   2234.
 Iteration    1 A^-1*A deviation from orthogonality  is 5.67D-15 for   8572   1332.
 E= -3306.56070255101    
 DIIS: error= 2.24D-02 at cycle   1 NSaved=   1.
 NSaved= 1 IEnMin= 1 EnMin= -3306.56070255101     IErMin= 1 ErrMin= 2.24D-02
 ErrMax= 2.24D-02  0.00D+00 EMaxC= 1.00D-01 BMatC= 9.01D+00 BMatP= 9.01D+00
 IDIUse=3 WtCom= 7.76D-01 WtEn= 2.24D-01
 Coeff-Com:  0.100D+01
 Coeff-En:   0.100D+01
 Coeff:      0.100D+01
 Gap=     0.058 Goal=   None    Shift=    0.000
 Gap=     0.167 Goal=   None    Shift=    0.000
 GapD=    0.058 DampG=0.500 DampE=0.500 DampFc=0.2500 IDamp=-1.
 Damping current iteration by 2.50D-01
 RMSDP=1.10D-03 MaxDP=3.45D-01              OVMax= 2.24D-01

 Cycle   2  Pass 1  IDiag  1:
 RMSU=  2.73D-04    CP:  9.86D-01
 E= -3307.18173993294     Delta-E=       -0.621037381930 Rises=F Damp=T
 DIIS: error= 1.36D-02 at cycle   2 NSaved=   2.
 NSaved= 2 IEnMin= 2 EnMin= -3307.18173993294     IErMin= 2 ErrMin= 1.36D-02
 ErrMax= 1.36D-02  0.00D+00 EMaxC= 1.00D-01 BMatC= 3.38D+00 BMatP= 9.01D+00
 IDIUse=3 WtCom= 8.64D-01 WtEn= 1.36D-01
 Coeff-Com: -0.129D+01 0.229D+01
 Coeff-En:   0.000D+00 0.100D+01
 Coeff:     -0.112D+01 0.212D+01
 Gap=     0.066 Goal=   None    Shift=    0.000
 Gap=     0.146 Goal=   None    Shift=    0.000
 RMSDP=6.97D-04 MaxDP=1.97D-01 DE=-6.21D-01 OVMax= 1.32D-01

 Cycle   3  Pass 1  IDiag  1:
 RMSU=  4.98D-04    CP:  9.50D-01  2.75D+00
 E= -3308.33243418013     Delta-E=       -1.150694247191 Rises=F Damp=F
 DIIS: error= 4.88D-03 at cycle   3 NSaved=   3.
 NSaved= 3 IEnMin= 3 EnMin= -3308.33243418013     IErMin= 3 ErrMin= 4.88D-03
 ErrMax= 4.88D-03  0.00D+00 EMaxC= 1.00D-01 BMatC= 3.35D-01 BMatP= 3.38D+00
 IDIUse=3 WtCom= 9.51D-01 WtEn= 4.88D-02
 Coeff-Com: -0.554D+00 0.920D+00 0.633D+00
 Coeff-En:   0.000D+00 0.000D+00 0.100D+01
 Coeff:     -0.527D+00 0.875D+00 0.651D+00
 Gap=     0.071 Goal=   None    Shift=    0.000
 Gap=     0.148 Goal=   None    Shift=    0.000
 RMSDP=1.49D-04 MaxDP=3.28D-02 DE=-1.15D+00 OVMax= 7.63D-02

 Cycle   4  Pass 1  IDiag  1:
 RMSU=  1.45D-04    CP:  9.49D-01  2.74D+00  9.30D-01
 E= -3308.39157149181     Delta-E=       -0.059137311675 Rises=F Damp=F
 DIIS: error= 2.43D-03 at cycle   4 NSaved=   4.
 NSaved= 4 IEnMin= 4 EnMin= -3308.39157149181     IErMin= 4 ErrMin= 2.43D-03
 ErrMax= 2.43D-03  0.00D+00 EMaxC= 1.00D-01 BMatC= 8.25D-02 BMatP= 3.35D-01
 IDIUse=3 WtCom= 9.76D-01 WtEn= 2.43D-02
 Coeff-Com: -0.101D+00 0.158D+00 0.347D+00 0.596D+00
 Coeff-En:   0.000D+00 0.000D+00 0.191D+00 0.809D+00
 Coeff:     -0.982D-01 0.154D+00 0.343D+00 0.601D+00
 Gap=     0.079 Goal=   None    Shift=    0.000
 Gap=     0.143 Goal=   None    Shift=    0.000
 RMSDP=6.78D-05 MaxDP=1.97D-02 DE=-5.91D-02 OVMax= 5.49D-02

 Cycle   5  Pass 1  IDiag  1:
 RMSU=  6.21D-05    CP:  9.47D-01  2.69D+00  9.29D-01  8.50D-01
 E= -3308.41009456220     Delta-E=       -0.018523070392 Rises=F Damp=F
 DIIS: error= 8.11D-04 at cycle   5 NSaved=   5.
 NSaved= 5 IEnMin= 5 EnMin= -3308.41009456220     IErMin= 5 ErrMin= 8.11D-04
 ErrMax= 8.11D-04  0.00D+00 EMaxC= 1.00D-01 BMatC= 4.26D-03 BMatP= 8.25D-02
 IDIUse=3 WtCom= 9.92D-01 WtEn= 8.11D-03
 Coeff-Com: -0.167D-01 0.242D-01 0.133D+00 0.286D+00 0.573D+00
 Coeff-En:   0.000D+00 0.000D+00 0.000D+00 0.000D+00 0.100D+01
 Coeff:     -0.166D-01 0.240D-01 0.132D+00 0.284D+00 0.577D+00
 Gap=     0.081 Goal=   None    Shift=    0.000
 Gap=     0.141 Goal=   None    Shift=    0.000
 RMSDP=2.12D-05 MaxDP=1.16D-02 DE=-1.85D-02 OVMax= 2.92D-02

 Cycle   6  Pass 1  IDiag  1:
 RMSU=  2.00D-05    CP:  9.46D-01  2.69D+00  9.28D-01  8.67D-01  1.10D+00
 E= -3308.41122852768     Delta-E=       -0.001133965476 Rises=F Damp=F
 DIIS: error= 3.81D-04 at cycle   6 NSaved=   6.
 NSaved= 6 IEnMin= 6 EnMin= -3308.41122852768     IErMin= 6 ErrMin= 3.81D-04
 ErrMax= 3.81D-04  0.00D+00 EMaxC= 1.00D-01 BMatC= 6.68D-04 BMatP= 4.26D-03
 IDIUse=3 WtCom= 9.96D-01 WtEn= 3.81D-03
 Coeff-Com:  0.396D-02-0.675D-02 0.236D-01 0.615D-01 0.283D+00 0.635D+00
 Coeff-En:   0.000D+00 0.000D+00 0.000D+00 0.000D+00 0.000D+00 0.100D+01
 Coeff:      0.395D-02-0.673D-02 0.235D-01 0.613D-01 0.282D+00 0.636D+00
 Gap=     0.085 Goal=   None    Shift=    0.000
 Gap=     0.141 Goal=   None    Shift=    0.000
 RMSDP=1.43D-05 MaxDP=6.83D-03 DE=-1.13D-03 OVMax= 2.76D-02

 Cycle   7  Pass 1  IDiag  1:
 RMSU=  1.03D-05    CP:  9.46D-01  2.69D+00  9.29D-01  8.87D-01  1.23D+00
                    CP:  1.25D+00
 E= -3308.41160350375     Delta-E=       -0.000374976071 Rises=F Damp=F
 DIIS: error= 1.74D-04 at cycle   7 NSaved=   7.
 NSaved= 7 IEnMin= 7 EnMin= -3308.41160350375     IErMin= 7 ErrMin= 1.74D-04
 ErrMax= 1.74D-04  0.00D+00 EMaxC= 1.00D-01 BMatC= 1.47D-04 BMatP= 6.68D-04
 IDIUse=3 WtCom= 9.98D-01 WtEn= 1.74D-03
 Coeff-Com:  0.534D-02-0.794D-02-0.232D-01-0.521D-01-0.514D-01 0.242D+00
 Coeff-Com:  0.887D+00
 Coeff-En:   0.000D+00 0.000D+00 0.000D+00 0.000D+00 0.000D+00 0.000D+00
 Coeff-En:   0.100D+01
 Coeff:      0.533D-02-0.793D-02-0.232D-01-0.520D-01-0.513D-01 0.242D+00
 Coeff:      0.887D+00
 Gap=     0.088 Goal=   None    Shift=    0.000
 Gap=     0.141 Goal=   None    Shift=    0.000
 RMSDP=1.48D-05 MaxDP=7.46D-03 DE=-3.75D-04 OVMax= 2.90D-02

 Cycle   8  Pass 1  IDiag  1:
 RMSU=  5.42D-06    CP:  9.46D-01  2.69D+00  9.32D-01  9.06D-01  1.35D+00
                    CP:  1.64D+00  1.79D+00
 E= -3308.41181145717     Delta-E=       -0.000207953428 Rises=F Damp=F
 DIIS: error= 1.03D-04 at cycle   8 NSaved=   8.
 NSaved= 8 IEnMin= 8 EnMin= -3308.41181145717     IErMin= 8 ErrMin= 1.03D-04
 ErrMax= 1.03D-04  0.00D+00 EMaxC= 1.00D-01 BMatC= 4.86D-05 BMatP= 1.47D-04
 IDIUse=3 WtCom= 9.99D-01 WtEn= 1.03D-03
 Coeff-Com:  0.122D-02-0.155D-02-0.166D-01-0.411D-01-0.115D+00-0.105D+00
 Coeff-Com:  0.407D+00 0.871D+00
 Coeff-En:   0.000D+00 0.000D+00 0.000D+00 0.000D+00 0.000D+00 0.000D+00
 Coeff-En:   0.000D+00 0.100D+01
 Coeff:      0.122D-02-0.155D-02-0.165D-01-0.411D-01-0.115D+00-0.105D+00
 Coeff:      0.407D+00 0.871D+00
 Gap=     0.090 Goal=   None    Shift=    0.000
 Gap=     0.141 Goal=   None    Shift=    0.000
 RMSDP=1.05D-05 MaxDP=5.58D-03 DE=-2.08D-04 OVMax= 1.96D-02

 Cycle   9  Pass 1  IDiag  1:
 RMSU=  2.56D-06    CP:  9.46D-01  2.68D+00  9.34D-01  9.17D-01  1.42D+00
                    CP:  1.90D+00  2.44D+00  1.52D+00
 E= -3308.41188650733     Delta-E=       -0.000075050160 Rises=F Damp=F
 DIIS: error= 4.16D-05 at cycle   9 NSaved=   9.
 NSaved= 9 IEnMin= 9 EnMin= -3308.41188650733     IErMin= 9 ErrMin= 4.16D-05
 ErrMax= 4.16D-05  0.00D+00 EMaxC= 1.00D-01 BMatC= 8.83D-06 BMatP= 4.86D-05
 IDIUse=1 WtCom= 1.00D+00 WtEn= 0.00D+00
 Coeff-Com: -0.157D-02 0.238D-02 0.410D-02 0.819D-02-0.962D-02-0.949D-01
 Coeff-Com: -0.153D+00 0.213D+00 0.103D+01
 Coeff:     -0.157D-02 0.238D-02 0.410D-02 0.819D-02-0.962D-02-0.949D-01
 Coeff:     -0.153D+00 0.213D+00 0.103D+01
 Gap=     0.091 Goal=   None    Shift=    0.000
 Gap=     0.141 Goal=   None    Shift=    0.000
 RMSDP=5.47D-06 MaxDP=2.49D-03 DE=-7.51D-05 OVMax= 9.20D-03

 Cycle  10  Pass 1  IDiag  1:
 RMSU=  1.34D-06    CP:  9.46D-01  2.68D+00  9.35D-01  9.21D-01  1.44D+00
                    CP:  2.03D+00  2.77D+00  1.91D+00  1.64D+00
 E= -3308.41190144264     Delta-E=       -0.000014935309 Rises=F Damp=F
 DIIS: error= 1.53D-05 at cycle  10 NSaved=  10.
 NSaved=10 IEnMin=10 EnMin= -3308.41190144264     IErMin=10 ErrMin= 1.53D-05
 ErrMax= 1.53D-05  0.00D+00 EMaxC= 1.00D-01 BMatC= 1.93D-06 BMatP= 8.83D-06
 IDIUse=1 WtCom= 1.00D+00 WtEn= 0.00D+00
 Coeff-Com: -0.797D-03 0.116D-02 0.426D-02 0.104D-01 0.171D-01-0.136D-01
 Coeff-Com: -0.119D+00-0.761D-01 0.368D+00 0.809D+00
 Coeff:     -0.797D-03 0.116D-02 0.426D-02 0.104D-01 0.171D-01-0.136D-01
 Coeff:     -0.119D+00-0.761D-01 0.368D+00 0.809D+00
 Gap=     0.091 Goal=   None    Shift=    0.000
 Gap=     0.141 Goal=   None    Shift=    0.000
 RMSDP=1.51D-06 MaxDP=6.50D-04 DE=-1.49D-05 OVMax= 1.98D-03

 Cycle  11  Pass 1  IDiag  1:
 RMSU=  5.55D-07    CP:  9.46D-01  2.68D+00  9.35D-01  9.22D-01  1.45D+00
                    CP:  2.06D+00  2.85D+00  2.04D+00  1.88D+00  1.36D+00
 E= -3308.41190314885     Delta-E=       -0.000001706207 Rises=F Damp=F
 DIIS: error= 5.96D-06 at cycle  11 NSaved=  11.
 NSaved=11 IEnMin=11 EnMin= -3308.41190314885     IErMin=11 ErrMin= 5.96D-06
 ErrMax= 5.96D-06  0.00D+00 EMaxC= 1.00D-01 BMatC= 4.75D-07 BMatP= 1.93D-06
 IDIUse=1 WtCom= 1.00D+00 WtEn= 0.00D+00
 Coeff-Com:  0.311D-05-0.211D-04 0.669D-03 0.223D-02 0.697D-02 0.905D-02
 Coeff-Com: -0.160D-01-0.602D-01-0.343D-01 0.314D+00 0.778D+00
 Coeff:      0.311D-05-0.211D-04 0.669D-03 0.223D-02 0.697D-02 0.905D-02
 Coeff:     -0.160D-01-0.602D-01-0.343D-01 0.314D+00 0.778D+00
 Gap=     0.091 Goal=   None    Shift=    0.000
 Gap=     0.141 Goal=   None    Shift=    0.000
 RMSDP=5.52D-07 MaxDP=1.98D-04 DE=-1.71D-06 OVMax= 5.20D-04

 Cycle  12  Pass 1  IDiag  1:
 RMSU=  2.88D-07    CP:  9.46D-01  2.68D+00  9.35D-01  9.23D-01  1.45D+00
                    CP:  2.06D+00  2.86D+00  2.06D+00  1.98D+00  1.56D+00
                    CP:  1.26D+00
 E= -3308.41190352898     Delta-E=       -0.000000380127 Rises=F Damp=F
 DIIS: error= 4.23D-06 at cycle  12 NSaved=  12.
 NSaved=12 IEnMin=12 EnMin= -3308.41190352898     IErMin=12 ErrMin= 4.23D-06
 ErrMax= 4.23D-06  0.00D+00 EMaxC= 1.00D-01 BMatC= 1.68D-07 BMatP= 4.75D-07
 IDIUse=1 WtCom= 1.00D+00 WtEn= 0.00D+00
 Coeff-Com:  0.202D-03-0.301D-03-0.803D-03-0.167D-02-0.118D-02 0.767D-02
 Coeff-Com:  0.244D-01-0.834D-02-0.114D+00-0.643D-01 0.376D+00 0.782D+00
 Coeff:      0.202D-03-0.301D-03-0.803D-03-0.167D-02-0.118D-02 0.767D-02
 Coeff:      0.244D-01-0.834D-02-0.114D+00-0.643D-01 0.376D+00 0.782D+00
 Gap=     0.091 Goal=   None    Shift=    0.000
 Gap=     0.141 Goal=   None    Shift=    0.000
 RMSDP=3.34D-07 MaxDP=1.74D-04 DE=-3.80D-07 OVMax= 2.45D-04

 Cycle  13  Pass 1  IDiag  1:
 RMSU=  1.65D-07    CP:  9.46D-01  2.68D+00  9.35D-01  9.23D-01  1.45D+00
                    CP:  2.07D+00  2.86D+00  2.07D+00  2.03D+00  1.66D+00
                    CP:  1.59D+00  1.34D+00
 E= -3308.41190369374     Delta-E=       -0.000000164766 Rises=F Damp=F
 DIIS: error= 2.31D-06 at cycle  13 NSaved=  13.
 NSaved=13 IEnMin=13 EnMin= -3308.41190369374     IErMin=13 ErrMin= 2.31D-06
 ErrMax= 2.31D-06  0.00D+00 EMaxC= 1.00D-01 BMatC= 4.70D-08 BMatP= 1.68D-07
 IDIUse=1 WtCom= 1.00D+00 WtEn= 0.00D+00
 Coeff-Com:  0.571D-04-0.810D-04-0.427D-03-0.114D-02-0.219D-02 0.635D-04
 Coeff-Com:  0.119D-01 0.145D-01-0.248D-01-0.105D+00-0.913D-01 0.243D+00
 Coeff-Com:  0.955D+00
 Coeff:      0.571D-04-0.810D-04-0.427D-03-0.114D-02-0.219D-02 0.635D-04
 Coeff:      0.119D-01 0.145D-01-0.248D-01-0.105D+00-0.913D-01 0.243D+00
 Coeff:      0.955D+00
 Gap=     0.091 Goal=   None    Shift=    0.000
 Gap=     0.141 Goal=   None    Shift=    0.000
 RMSDP=2.21D-07 MaxDP=4.50D-05 DE=-1.65D-07 OVMax= 1.58D-04

 Cycle  14  Pass 1  IDiag  1:
 RMSU=  8.26D-08    CP:  9.46D-01  2.68D+00  9.35D-01  9.23D-01  1.45D+00
                    CP:  2.07D+00  2.86D+00  2.07D+00  2.04D+00  1.72D+00
                    CP:  1.77D+00  1.75D+00  1.66D+00
 E= -3308.41190376923     Delta-E=       -0.000000075484 Rises=F Damp=F
 DIIS: error= 1.67D-06 at cycle  14 NSaved=  14.
 NSaved=14 IEnMin=14 EnMin= -3308.41190376923     IErMin=14 ErrMin= 1.67D-06
 ErrMax= 1.67D-06  0.00D+00 EMaxC= 1.00D-01 BMatC= 2.03D-08 BMatP= 4.70D-08
 IDIUse=1 WtCom= 1.00D+00 WtEn= 0.00D+00
 Coeff-Com: -0.691D-04 0.103D-03 0.212D-03 0.315D-03-0.282D-03-0.333D-02
 Coeff-Com: -0.685D-02 0.101D-01 0.430D-01-0.156D-01-0.215D+00-0.264D+00
 Coeff-Com:  0.415D+00 0.104D+01
 Coeff:     -0.691D-04 0.103D-03 0.212D-03 0.315D-03-0.282D-03-0.333D-02
 Coeff:     -0.685D-02 0.101D-01 0.430D-01-0.156D-01-0.215D+00-0.264D+00
 Coeff:      0.415D+00 0.104D+01
 Gap=     0.091 Goal=   None    Shift=    0.000
 Gap=     0.141 Goal=   None    Shift=    0.000
 RMSDP=1.98D-07 MaxDP=5.05D-05 DE=-7.55D-08 OVMax= 1.61D-04

 Cycle  15  Pass 1  IDiag  1:
 RMSU=  5.26D-08    CP:  9.46D-01  2.68D+00  9.35D-01  9.23D-01  1.45D+00
                    CP:  2.07D+00  2.87D+00  2.07D+00  2.05D+00  1.75D+00
                    CP:  1.91D+00  2.10D+00  2.34D+00  1.81D+00
 E= -3308.41190380845     Delta-E=       -0.000000039223 Rises=F Damp=F
 DIIS: error= 8.62D-07 at cycle  15 NSaved=  15.
 NSaved=15 IEnMin=15 EnMin= -3308.41190380845     IErMin=15 ErrMin= 8.62D-07
 ErrMax= 8.62D-07  0.00D+00 EMaxC= 1.00D-01 BMatC= 5.99D-09 BMatP= 2.03D-08
 IDIUse=1 WtCom= 1.00D+00 WtEn= 0.00D+00
 Coeff-Com: -0.411D-04 0.608D-04 0.201D-03 0.423D-03 0.397D-03-0.141D-02
 Coeff-Com: -0.613D-02 0.141D-03 0.243D-01 0.226D-01-0.573D-01-0.182D+00
 Coeff-Com: -0.135D+00 0.444D+00 0.889D+00
 Coeff:     -0.411D-04 0.608D-04 0.201D-03 0.423D-03 0.397D-03-0.141D-02
 Coeff:     -0.613D-02 0.141D-03 0.243D-01 0.226D-01-0.573D-01-0.182D+00
 Coeff:     -0.135D+00 0.444D+00 0.889D+00
 Gap=     0.091 Goal=   None    Shift=    0.000
 Gap=     0.141 Goal=   None    Shift=    0.000
 RMSDP=9.92D-08 MaxDP=3.29D-05 DE=-3.92D-08 OVMax= 9.01D-05

 Cycle  16  Pass 1  IDiag  1:
 RMSU=  2.58D-08    CP:  9.46D-01  2.68D+00  9.35D-01  9.23D-01  1.45D+00
                    CP:  2.07D+00  2.87D+00  2.07D+00  2.06D+00  1.77D+00
                    CP:  1.96D+00  2.24D+00  2.69D+00  2.32D+00  1.41D+00
 E= -3308.41190381913     Delta-E=       -0.000000010677 Rises=F Damp=F
 DIIS: error= 6.36D-07 at cycle  16 NSaved=  16.
 NSaved=16 IEnMin=16 EnMin= -3308.41190381913     IErMin=16 ErrMin= 6.36D-07
 ErrMax= 6.36D-07  0.00D+00 EMaxC= 1.00D-01 BMatC= 2.28D-09 BMatP= 5.99D-09
 IDIUse=1 WtCom= 1.00D+00 WtEn= 0.00D+00
 Coeff-Com: -0.383D-05 0.600D-05 0.591D-04 0.153D-03 0.279D-03 0.629D-04
 Coeff-Com: -0.174D-02-0.268D-02 0.278D-02 0.177D-01 0.256D-01-0.362D-01
 Coeff-Com: -0.196D+00-0.235D-01 0.513D+00 0.701D+00
 Coeff:     -0.383D-05 0.600D-05 0.591D-04 0.153D-03 0.279D-03 0.629D-04
 Coeff:     -0.174D-02-0.268D-02 0.278D-02 0.177D-01 0.256D-01-0.362D-01
 Coeff:     -0.196D+00-0.235D-01 0.513D+00 0.701D+00
 Gap=     0.091 Goal=   None    Shift=    0.000
 Gap=     0.141 Goal=   None    Shift=    0.000
 RMSDP=4.02D-08 MaxDP=1.01D-05 DE=-1.07D-08 OVMax= 4.15D-05

 Cycle  17  Pass 1  IDiag  1:
 RMSU=  1.39D-08    CP:  9.46D-01  2.68D+00  9.35D-01  9.23D-01  1.45D+00
                    CP:  2.07D+00  2.87D+00  2.07D+00  2.06D+00  1.77D+00
                    CP:  1.97D+00  2.30D+00  2.79D+00  2.55D+00  1.69D+00
                    CP:  1.27D+00
 E= -3308.41190382178     Delta-E=       -0.000000002654 Rises=F Damp=F
 DIIS: error= 2.42D-07 at cycle  17 NSaved=  17.
 NSaved=17 IEnMin=17 EnMin= -3308.41190382178     IErMin=17 ErrMin= 2.42D-07
 ErrMax= 2.42D-07  0.00D+00 EMaxC= 1.00D-01 BMatC= 3.90D-10 BMatP= 2.28D-09
 IDIUse=1 WtCom= 1.00D+00 WtEn= 0.00D+00
 Coeff-Com:  0.702D-05-0.101D-04-0.129D-04-0.164D-04 0.590D-04 0.371D-03
 Coeff-Com:  0.561D-03-0.126D-02-0.406D-02 0.251D-02 0.225D-01 0.251D-01
 Coeff-Com: -0.471D-01-0.109D+00-0.111D-01 0.292D+00 0.830D+00
 Coeff:      0.702D-05-0.101D-04-0.129D-04-0.164D-04 0.590D-04 0.371D-03
 Coeff:      0.561D-03-0.126D-02-0.406D-02 0.251D-02 0.225D-01 0.251D-01
 Coeff:     -0.471D-01-0.109D+00-0.111D-01 0.292D+00 0.830D+00
 Gap=     0.091 Goal=   None    Shift=    0.000
 Gap=     0.141 Goal=   None    Shift=    0.000
 RMSDP=1.55D-08 MaxDP=3.00D-06 DE=-2.65D-09 OVMax= 1.86D-05

 Cycle  18  Pass 1  IDiag  1:
 RMSU=  6.80D-09    CP:  9.46D-01  2.68D+00  9.35D-01  9.23D-01  1.45D+00
                    CP:  2.07D+00  2.87D+00  2.07D+00  2.06D+00  1.77D+00
                    CP:  1.98D+00  2.30D+00  2.81D+00  2.62D+00  1.79D+00
                    CP:  1.57D+00  1.29D+00
 E= -3308.41190382120     Delta-E=        0.000000000582 Rises=F Damp=F
 DIIS: error= 1.54D-07 at cycle  18 NSaved=  18.
 NSaved=18 IEnMin=17 EnMin= -3308.41190382178     IErMin=18 ErrMin= 1.54D-07
 ErrMax= 1.54D-07  0.00D+00 EMaxC= 1.00D-01 BMatC= 8.62D-11 BMatP= 3.90D-10
 IDIUse=1 WtCom= 1.00D+00 WtEn= 0.00D+00
 Coeff-Com:  0.257D-05-0.385D-05-0.169D-04-0.366D-04-0.423D-04 0.916D-04
 Coeff-Com:  0.552D-03 0.192D-03-0.176D-02-0.298D-02 0.519D-03 0.150D-01
 Coeff-Com:  0.297D-01-0.276D-01-0.117D+00-0.707D-01 0.243D+00 0.931D+00
 Coeff:      0.257D-05-0.385D-05-0.169D-04-0.366D-04-0.423D-04 0.916D-04
 Coeff:      0.552D-03 0.192D-03-0.176D-02-0.298D-02 0.519D-03 0.150D-01
 Coeff:      0.297D-01-0.276D-01-0.117D+00-0.707D-01 0.243D+00 0.931D+00
 Gap=     0.091 Goal=   None    Shift=    0.000
 Gap=     0.141 Goal=   None    Shift=    0.000
 RMSDP=7.90D-09 MaxDP=2.85D-06 DE= 5.82D-10 OVMax= 8.73D-06

 Cycle  19  Pass 1  IDiag  1:
 RMSU=  3.78D-09    CP:  9.46D-01  2.68D+00  9.35D-01  9.23D-01  1.45D+00
                    CP:  2.07D+00  2.87D+00  2.07D+00  2.06D+00  1.77D+00
                    CP:  1.98D+00  2.31D+00  2.81D+00  2.63D+00  1.83D+00
                    CP:  1.69D+00  1.60D+00  1.49D+00
 E= -3308.41190382155     Delta-E=       -0.000000000351 Rises=F Damp=F
 DIIS: error= 8.50D-08 at cycle  19 NSaved=  19.
 NSaved=19 IEnMin=17 EnMin= -3308.41190382178     IErMin=19 ErrMin= 8.50D-08
 ErrMax= 8.50D-08  0.00D+00 EMaxC= 1.00D-01 BMatC= 3.29D-11 BMatP= 8.62D-11
 IDIUse=1 WtCom= 1.00D+00 WtEn= 0.00D+00
 Coeff-Com: -0.132D-05 0.179D-05-0.204D-05-0.561D-05-0.247D-04-0.629D-04
 Coeff-Com:  0.595D-04 0.379D-03 0.455D-03-0.165D-02-0.614D-02-0.132D-02
 Coeff-Com:  0.247D-01 0.191D-01-0.423D-01-0.109D+00-0.139D+00 0.378D+00
 Coeff-Com:  0.877D+00
 Coeff:     -0.132D-05 0.179D-05-0.204D-05-0.561D-05-0.247D-04-0.629D-04
 Coeff:      0.595D-04 0.379D-03 0.455D-03-0.165D-02-0.614D-02-0.132D-02
 Coeff:      0.247D-01 0.191D-01-0.423D-01-0.109D+00-0.139D+00 0.378D+00
 Coeff:      0.877D+00
 Gap=     0.091 Goal=   None    Shift=    0.000
 Gap=     0.141 Goal=   None    Shift=    0.000
 RMSDP=4.90D-09 MaxDP=9.35D-07 DE=-3.51D-10 OVMax= 4.73D-06

 Error on total polarization charges =  0.03565
 SCF Done:  E(UM062X) =  -3308.41190382     A.U. after   19 cycles
            NFock= 19  Conv=0.49D-08     -V/T= 2.0056
 <Sx>= 0.0000 <Sy>= 0.0000 <Sz>= 0.5000 <S**2>= 0.7708 S= 0.5103
 <L.S>= 0.000000000000E+00
 KE= 3.290076977333D+03 PE=-2.803678915748D+04 EE= 1.128743461421D+04
 Annihilation of the first spin contaminant:
 S**2 before annihilation     0.7708,   after     0.7503
 Leave Link  502 at Fri Nov  7 04:34:50 2025, MaxMem= 30870077440 cpu:          267774.4 elap:            4243.4
 (Enter /public/software/gauss/g16/l601.exe)
 Copying SCF densities to generalized density rwf, IOpCl= 1 IROHF=0.
 Hyperfine terms turned off by default for NAtoms > 100.

 **********************************************************************

            Population analysis using the SCF density.

 **********************************************************************

 Orbital symmetries:
 Alpha Orbitals:
       Occupied  (A) (A) (A) (A) (A) (A) (A) (A) (A) (A) (A) (A)
                 (A) (A) (A) (A) (A) (A) (A) (A) (A) (A) (A) (A)
                 (A) (A) (A) (A) (A) (A) (A) (A) (A) (A) (A) (A)
                 (A) (A) (A) (A) (A) (A) (A) (A) (A) (A) (A) (A)
                 (A) (A) (A) (A) (A) (A) (A) (A) (A) (A) (A) (A)
                 (A) (A) (A) (A) (A) (A) (A) (A) (A) (A) (A) (A)
                 (A) (A) (A) (A) (A) (A) (A) (A) (A) (A) (A) (A)
                 (A) (A) (A) (A) (A) (A) (A) (A) (A) (A) (A) (A)
                 (A) (A) (A) (A) (A) (A) (A) (A) (A) (A) (A) (A)
                 (A) (A) (A) (A) (A) (A) (A) (A) (A) (A) (A) (A)
                 (A) (A) (A) (A) (A) (A) (A) (A) (A) (A) (A) (A)
                 (A) (A) (A) (A) (A) (A) (A) (A) (A) (A) (A) (A)
                 (A) (A) (A) (A) (A) (A) (A) (A) (A) (A) (A) (A)
                 (A) (A) (A) (A) (A) (A) (A) (A) (A) (A) (A) (A)
                 (A) (A) (A) (A) (A) (A) (A) (A) (A) (A) (A) (A)
                 (A) (A) (A) (A) (A) (A) (A) (A) (A) (A) (A) (A)
                 (A) (A) (A) (A) (A) (A) (A) (A) (A) (A) (A) (A)
                 (A) (A) (A) (A) (A) (A) (A) (A) (A) (A) (A) (A)
                 (A) (A) (A) (A) (A) (A) (A) (A) (A) (A) (A) (A)
                 (A) (A) (A) (A) (A) (A) (A) (A) (A) (A) (A) (A)
                 (A) (A) (A) (A) (A) (A) (A) (A) (A) (A) (A) (A)
                 (A) (A) (A) (A) (A) (A) (A) (A) (A) (A) (A) (A)
                 (A) (A) (A) (A) (A) (A)
       Virtual   (A) (A) (A) (A) (A) (A) (A) (A) (A) (A) (A) (A)
                 (A) (A) (A) (A) (A) (A) (A) (A) (A) (A) (A) (A)
                 (A) (A) (A) (A) (A) (A) (A) (A) (A) (A) (A) (A)
                 (A) (A) (A) (A) (A) (A) (A) (A) (A) (A) (A) (A)
                 (A) (A) (A) (A) (A) (A) (A) (A) (A) (A) (A) (A)
                 (A) (A) (A) (A) (A) (A) (A) (A) (A) (A) (A) (A)
                 (A) (A) (A) (A) (A) (A) (A) (A) (A) (A) (A) (A)
                 (A) (A) (A) (A) (A) (A) (A) (A) (A) (A) (A) (A)
                 (A) (A) (A) (A) (A) (A) (A) (A) (A) (A) (A) (A)
                 (A) (A) (A) (A) (A) (A) (A) (A) (A) (A) (A) (A)
                 (A) (A) (A) (A) (A) (A) (A) (A) (A) (A) (A) (A)
                 (A) (A) (A) (A) (A) (A) (A) (A) (A) (A) (A) (A)
                 (A) (A) (A) (A) (A) (A) (A) (A) (A) (A) (A) (A)
                 (A) (A) (A) (A) (A) (A) (A) (A) (A) (A) (A) (A)
                 (A) (A) (A) (A) (A) (A) (A) (A) (A) (A) (A) (A)
                 (A) (A) (A) (A) (A) (A) (A) (A) (A) (A) (A) (A)
                 (A) (A) (A) (A) (A) (A) (A) (A) (A) (A) (A) (A)
                 (A) (A) (A) (A) (A) (A) (A) (A) (A) (A) (A) (A)
                 (A) (A) (A) (A) (A) (A) (A) (A) (A) (A) (A) (A)
                 (A) (A) (A) (A) (A) (A) (A) (A) (A) (A) (A) (A)
                 (A) (A) (A) (A) (A) (A) (A) (A) (A) (A) (A) (A)
                 (A) (A) (A) (A) (A) (A) (A) (A) (A) (A) (A) (A)
                 (A) (A) (A) (A) (A) (A) (A) (A) (A) (A) (A) (A)
                 (A) (A) (A) (A) (A) (A) (A) (A) (A) (A) (A) (A)
                 (A) (A) (A) (A) (A) (A) (A) (A) (A) (A) (A) (A)
                 (A) (A) (A) (A) (A) (A) (A) (A) (A) (A) (A) (A)
                 (A) (A) (A) (A) (A) (A) (A) (A) (A) (A) (A) (A)
                 (A) (A) (A) (A) (A) (A) (A) (A) (A) (A) (A) (A)
                 (A) (A) (A) (A) (A) (A) (A) (A) (A) (A) (A) (A)
                 (A) (A) (A) (A) (A) (A) (A) (A) (A) (A) (A) (A)
                 (A) (A) (A) (A) (A) (A) (A) (A) (A) (A) (A) (A)
                 (A) (A) (A) (A) (A) (A) (A) (A) (A) (A) (A) (A)
                 (A) (A) (A) (A) (A) (A) (A) (A) (A) (A) (A) (A)
                 (A) (A) (A) (A) (A) (A) (A) (A) (A) (A) (A) (A)
                 (A) (A) (A) (A) (A) (A) (A) (A) (A) (A) (A) (A)
                 (A) (A) (A) (A) (A) (A) (A) (A) (A) (A) (A) (A)
                 (A) (A) (A) (A) (A) (A) (A) (A) (A) (A) (A) (A)
                 (A) (A) (A) (A) (A) (A) (A) (A) (A) (A) (A) (A)
                 (A) (A) (A) (A) (A) (A) (A) (A) (A) (A) (A) (A)
                 (A) (A) (A) (A) (A) (A) (A) (A) (A) (A) (A) (A)
                 (A) (A) (A) (A) (A) (A) (A) (A) (A) (A) (A) (A)
                 (A) (A) (A) (A) (A) (A) (A) (A) (A) (A) (A) (A)
                 (A) (A) (A) (A) (A) (A) (A) (A) (A) (A) (A) (A)
                 (A) (A) (A) (A) (A) (A) (A) (A) (A) (A) (A) (A)
                 (A) (A) (A) (A) (A) (A) (A) (A) (A) (A) (A) (A)
                 (A) (A) (A) (A) (A) (A) (A) (A) (A) (A) (A) (A)
                 (A) (A) (A) (A) (A) (A) (A) (A) (A) (A) (A) (A)
                 (A) (A) (A) (A) (A) (A) (A) (A) (A) (A) (A) (A)
                 (A) (A) (A) (A) (A) (A) (A) (A) (A) (A) (A) (A)
                 (A) (A) (A) (A) (A) (A) (A) (A) (A) (A) (A) (A)
                 (A) (A) (A) (A) (A) (A) (A) (A) (A) (A) (A) (A)
                 (A) (A) (A) (A) (A) (A) (A) (A) (A) (A) (A) (A)
                 (A) (A) (A) (A) (A) (A) (A) (A) (A) (A) (A) (A)
                 (A) (A) (A) (A) (A) (A) (A) (A) (A) (A) (A) (A)
                 (A) (A) (A) (A) (A) (A) (A) (A) (A) (A) (A) (A)
                 (A) (A) (A) (A) (A) (A) (A) (A) (A) (A) (A) (A)
                 (A) (A) (A) (A) (A) (A) (A) (A) (A) (A) (A) (A)
                 (A) (A) (A) (A) (A) (A) (A) (A) (A) (A) (A) (A)
                 (A) (A) (A) (A) (A) (A) (A) (A) (A) (A) (A) (A)
                 (A) (A) (A) (A) (A) (A) (A) (A) (A) (A) (A) (A)
                 (A) (A) (A) (A) (A) (A) (A) (A) (A) (A) (A) (A)
                 (A) (A) (A) (A) (A) (A) (A) (A) (A) (A) (A) (A)
                 (A) (A) (A) (A) (A) (A) (A) (A) (A) (A) (A) (A)
                 (A) (A) (A) (A) (A) (A) (A) (A) (A) (A) (A) (A)
                 (A) (A) (A) (A) (A) (A) (A) (A) (A) (A) (A) (A)
                 (A) (A) (A) (A) (A) (A) (A) (A) (A) (A) (A) (A)
                 (A) (A) (A) (A) (A) (A) (A) (A) (A) (A) (A) (A)
                 (A) (A) (A) (A) (A) (A) (A) (A) (A) (A) (A) (A)
                 (A) (A) (A) (A) (A) (A) (A) (A) (A) (A) (A) (A)
                 (A) (A) (A) (A) (A) (A) (A) (A) (A) (A) (A) (A)
                 (A) (A) (A) (A) (A) (A) (A) (A) (A) (A) (A) (A)
                 (A) (A) (A) (A) (A) (A) (A) (A) (A) (A) (A) (A)
                 (A) (A) (A) (A) (A) (A) (A) (A) (A) (A) (A) (A)
                 (A) (A) (A) (A) (A) (A) (A) (A) (A) (A) (A) (A)
                 (A) (A) (A) (A) (A) (A) (A) (A) (A) (A) (A) (A)
                 (A) (A) (A) (A) (A) (A) (A) (A) (A) (A) (A) (A)
                 (A) (A) (A) (A) (A) (A) (A) (A) (A) (A) (A) (A)
                 (A) (A) (A) (A) (A) (A) (A) (A) (A) (A) (A) (A)
                 (A) (A) (A) (A) (A) (A) (A) (A) (A) (A) (A) (A)
                 (A) (A) (A) (A) (A) (A) (A) (A) (A) (A) (A) (A)
                 (A) (A) (A) (A) (A) (A) (A) (A) (A) (A) (A) (A)
                 (A) (A) (A) (A) (A) (A) (A) (A) (A) (A) (A) (A)
                 (A) (A) (A) (A) (A) (A) (A) (A) (A) (A) (A) (A)
                 (A) (A) (A) (A) (A) (A) (A) (A) (A) (A) (A) (A)
                 (A) (A) (A) (A) (A) (A) (A) (A) (A) (A) (A) (A)
                 (A) (A) (A) (A) (A) (A) (A) (A) (A) (A) (A) (A)
                 (A) (A) (A) (A) (A) (A) (A) (A) (A) (A) (A) (A)
                 (A) (A) (A) (A) (A) (A) (A) (A) (A) (A) (A) (A)
                 (A) (A) (A) (A) (A) (A) (A) (A) (A) (A) (A) (A)
                 (A) (A) (A) (A) (A) (A) (A) (A) (A) (A) (A) (A)
                 (A) (A) (A) (A) (A) (A) (A) (A) (A) (A) (A) (A)
                 (A) (A) (A) (A) (A) (A) (A) (A) (A) (A) (A) (A)
                 (A) (A) (A) (A) (A) (A) (A) (A) (A) (A) (A) (A)
                 (A) (A) (A) (A) (A) (A) (A) (A) (A) (A) (A) (A)
                 (A) (A) (A) (A) (A) (A) (A) (A) (A) (A) (A) (A)
                 (A) (A) (A) (A) (A) (A) (A) (A) (A) (A) (A) (A)
                 (A) (A) (A) (A) (A) (A) (A) (A) (A) (A) (A) (A)
                 (A) (A) (A) (A) (A) (A) (A) (A) (A) (A) (A) (A)
                 (A) (A) (A) (A) (A) (A) (A) (A) (A) (A) (A) (A)
                 (A) (A) (A) (A) (A) (A) (A) (A) (A) (A) (A) (A)
                 (A) (A) (A) (A) (A) (A) (A) (A) (A) (A) (A) (A)
                 (A) (A) (A) (A) (A) (A) (A) (A) (A) (A) (A) (A)
                 (A) (A) (A) (A) (A) (A) (A) (A) (A) (A) (A) (A)
                 (A) (A) (A) (A) (A) (A) (A) (A) (A) (A) (A) (A)
                 (A) (A) (A) (A) (A) (A) (A) (A) (A) (A) (A) (A)
                 (A) (A) (A) (A) (A) (A) (A) (A) (A) (A) (A) (A)
                 (A) (A) (A) (A) (A) (A) (A) (A) (A) (A) (A) (A)
                 (A) (A) (A) (A) (A) (A) (A) (A) (A) (A) (A) (A)
                 (A) (A) (A) (A) (A) (A) (A) (A) (A) (A) (A) (A)
                 (A) (A) (A) (A) (A) (A) (A) (A) (A) (A) (A) (A)
                 (A) (A) (A) (A) (A) (A) (A) (A) (A) (A) (A) (A)
                 (A) (A) (A) (A) (A) (A) (A) (A) (A) (A) (A) (A)
                 (A) (A) (A) (A) (A) (A) (A) (A) (A) (A) (A) (A)
                 (A) (A) (A) (A) (A) (A) (A) (A) (A) (A) (A) (A)
                 (A) (A) (A) (A) (A) (A) (A) (A) (A) (A) (A) (A)
                 (A) (A) (A) (A) (A) (A) (A) (A) (A) (A) (A) (A)
                 (A) (A) (A) (A) (A) (A) (A) (A) (A) (A) (A) (A)
                 (A) (A) (A) (A) (A) (A) (A) (A) (A) (A) (A) (A)
                 (A) (A) (A) (A) (A) (A) (A) (A) (A) (A) (A) (A)
                 (A) (A) (A) (A) (A) (A) (A) (A) (A) (A) (A) (A)
                 (A) (A) (A) (A) (A) (A) (A) (A) (A) (A) (A) (A)
                 (A) (A) (A) (A) (A) (A) (A) (A) (A) (A) (A) (A)
                 (A) (A) (A) (A) (A) (A) (A) (A) (A) (A) (A) (A)
                 (A) (A) (A) (A) (A) (A) (A) (A) (A) (A) (A) (A)
                 (A) (A) (A) (A) (A) (A) (A) (A) (A) (A) (A) (A)
                 (A) (A) (A) (A) (A) (A) (A) (A) (A) (A) (A) (A)
                 (A) (A) (A) (A) (A) (A) (A) (A) (A) (A) (A) (A)
                 (A) (A) (A) (A) (A) (A) (A) (A) (A) (A) (A) (A)
                 (A) (A) (A) (A) (A) (A) (A) (A) (A) (A) (A) (A)
                 (A) (A) (A) (A) (A) (A) (A) (A) (A) (A) (A) (A)
                 (A) (A) (A) (A) (A) (A) (A) (A) (A) (A) (A) (A)
                 (A) (A) (A) (A) (A) (A) (A) (A) (A) (A) (A) (A)
                 (A) (A) (A) (A) (A) (A) (A) (A) (A) (A) (A) (A)
                 (A) (A) (A) (A) (A) (A) (A) (A) (A) (A) (A) (A)
                 (A) (A) (A) (A) (A) (A) (A) (A) (A) (A) (A) (A)
                 (A) (A) (A) (A) (A) (A) (A) (A) (A) (A) (A) (A)
                 (A) (A) (A) (A) (A) (A) (A) (A) (A) (A) (A) (A)
                 (A) (A) (A) (A) (A) (A) (A) (A) (A) (A) (A) (A)
                 (A) (A) (A) (A) (A) (A) (A) (A) (A) (A) (A) (A)
                 (A) (A) (A) (A) (A) (A) (A) (A) (A) (A) (A) (A)
                 (A) (A) (A) (A) (A) (A) (A) (A) (A) (A) (A) (A)
                 (A) (A) (A) (A) (A) (A) (A) (A) (A) (A) (A) (A)
                 (A) (A) (A) (A) (A) (A) (A) (A) (A) (A) (A) (A)
                 (A) (A) (A) (A) (A) (A) (A) (A) (A) (A) (A) (A)
                 (A) (A) (A) (A) (A) (A) (A) (A) (A) (A) (A) (A)
                 (A) (A) (A) (A) (A) (A) (A) (A) (A) (A) (A) (A)
                 (A) (A) (A) (A) (A) (A) (A) (A) (A) (A) (A) (A)
                 (A) (A) (A) (A) (A) (A) (A) (A) (A) (A) (A) (A)
                 (A) (A) (A) (A) (A) (A) (A) (A) (A) (A) (A) (A)
                 (A) (A) (A) (A) (A) (A) (A) (A) (A) (A) (A) (A)
                 (A) (A) (A) (A) (A) (A) (A) (A) (A) (A) (A) (A)
                 (A) (A) (A) (A) (A) (A) (A) (A) (A) (A) (A) (A)
                 (A) (A) (A) (A) (A) (A) (A) (A) (A) (A) (A) (A)
                 (A) (A) (A) (A) (A) (A) (A) (A) (A) (A) (A) (A)
                 (A) (A) (A) (A) (A) (A) (A) (A) (A) (A) (A) (A)
                 (A) (A) (A) (A) (A) (A) (A) (A) (A) (A) (A) (A)
                 (A) (A) (A) (A) (A) (A) (A) (A) (A) (A) (A) (A)
                 (A) (A) (A) (A) (A) (A) (A) (A) (A) (A) (A) (A)
                 (A) (A) (A) (A) (A) (A) (A) (A) (A) (A) (A) (A)
                 (A) (A) (A) (A) (A) (A) (A) (A) (A) (A) (A) (A)
                 (A) (A) (A) (A) (A) (A) (A) (A) (A) (A) (A) (A)
                 (A) (A) (A) (A) (A) (A) (A) (A) (A) (A) (A) (A)
                 (A) (A) (A) (A) (A) (A) (A) (A) (A) (A) (A) (A)
                 (A) (A) (A) (A) (A) (A) (A) (A) (A) (A) (A) (A)
                 (A) (A) (A) (A) (A) (A) (A) (A) (A) (A) (A) (A)
                 (A) (A) (A) (A) (A) (A) (A) (A) (A) (A) (A) (A)
                 (A) (A) (A) (A) (A) (A) (A) (A) (A) (A) (A) (A)
                 (A) (A) (A) (A) (A) (A) (A) (A) (A) (A) (A) (A)
                 (A) (A) (A) (A) (A) (A) (A) (A) (A) (A) (A) (A)
                 (A) (A) (A) (A) (A) (A) (A) (A) (A) (A) (A) (A)
                 (A) (A) (A) (A) (A) (A) (A) (A) (A) (A) (A) (A)
                 (A) (A) (A) (A) (A) (A) (A) (A) (A) (A) (A) (A)
                 (A) (A) (A) (A) (A) (A) (A) (A) (A) (A) (A) (A)
                 (A) (A) (A) (A) (A) (A) (A) (A) (A) (A) (A) (A)
                 (A) (A) (A) (A) (A) (A) (A) (A) (A) (A) (A) (A)
                 (A) (A) (A) (A) (A) (A) (A) (A) (A) (A) (A) (A)
                 (A) (A) (A) (A) (A) (A) (A) (A) (A) (A) (A) (A)
                 (A) (A) (A) (A) (A) (A) (A) (A) (A) (A) (A) (A)
                 (A) (A) (A) (A) (A) (A) (A) (A) (A) (A) (A) (A)
                 (A) (A) (A) (A) (A) (A) (A) (A) (A) (A) (A) (A)
                 (A) (A) (A) (A) (A) (A) (A) (A) (A) (A) (A) (A)
                 (A) (A) (A) (A) (A) (A) (A) (A) (A) (A) (A) (A)
                 (A) (A) (A) (A) (A) (A) (A) (A) (A) (A) (A) (A)
                 (A) (A) (A) (A) (A) (A) (A) (A) (A) (A) (A) (A)
                 (A) (A) (A) (A) (A) (A) (A) (A) (A) (A) (A) (A)
                 (A) (A) (A) (A) (A) (A) (A) (A) (A) (A) (A) (A)
                 (A) (A) (A) (A) (A) (A) (A) (A) (A) (A) (A) (A)
                 (A) (A) (A) (A) (A) (A) (A) (A) (A) (A) (A) (A)
                 (A) (A) (A) (A) (A) (A) (A) (A) (A) (A) (A) (A)
                 (A) (A) (A) (A) (A) (A) (A) (A) (A) (A) (A) (A)
                 (A) (A) (A) (A) (A) (A) (A) (A) (A) (A) (A) (A)
                 (A) (A) (A) (A) (A) (A) (A) (A) (A) (A) (A) (A)
                 (A) (A) (A) (A) (A) (A) (A) (A) (A) (A) (A) (A)
                 (A) (A) (A) (A) (A) (A) (A) (A) (A) (A) (A) (A)
                 (A) (A) (A) (A) (A) (A) (A) (A) (A) (A) (A) (A)
                 (A) (A) (A) (A) (A) (A) (A) (A) (A) (A) (A) (A)
                 (A) (A) (A) (A) (A) (A) (A) (A) (A) (A) (A) (A)
                 (A) (A) (A) (A) (A) (A) (A) (A) (A) (A) (A) (A)
                 (A) (A) (A) (A) (A) (A) (A) (A) (A) (A) (A) (A)
                 (A) (A) (A) (A) (A) (A) (A) (A) (A) (A) (A) (A)
                 (A) (A) (A) (A) (A) (A) (A) (A) (A) (A) (A) (A)
                 (A) (A) (A) (A) (A) (A) (A) (A) (A) (A) (A) (A)
                 (A) (A) (A) (A) (A) (A) (A) (A) (A) (A) (A) (A)
                 (A) (A) (A) (A) (A) (A) (A) (A) (A) (A) (A) (A)
                 (A) (A) (A) (A) (A) (A) (A) (A) (A) (A) (A) (A)
                 (A) (A) (A) (A) (A) (A) (A) (A) (A) (A) (A) (A)
                 (A) (A) (A) (A) (A) (A) (A) (A) (A) (A) (A) (A)
                 (A) (A) (A) (A) (A) (A) (A) (A) (A) (A) (A) (A)
                 (A) (A) (A) (A) (A) (A) (A) (A) (A) (A) (A) (A)
                 (A) (A) (A) (A) (A) (A) (A) (A) (A) (A) (A) (A)
                 (A) (A) (A) (A) (A) (A) (A) (A) (A) (A) (A) (A)
                 (A) (A) (A) (A) (A) (A) (A) (A) (A) (A) (A) (A)
                 (A) (A) (A) (A) (A) (A) (A) (A) (A) (A) (A) (A)
                 (A) (A) (A) (A) (A) (A) (A) (A) (A) (A) (A) (A)
                 (A) (A) (A) (A) (A) (A) (A) (A) (A) (A) (A) (A)
                 (A) (A) (A) (A) (A) (A) (A) (A) (A) (A) (A) (A)
                 (A) (A) (A) (A) (A) (A) (A) (A) (A) (A) (A) (A)
                 (A) (A) (A) (A) (A) (A) (A) (A) (A) (A) (A) (A)
                 (A) (A) (A) (A) (A) (A) (A) (A) (A) (A) (A) (A)
                 (A) (A) (A) (A) (A) (A) (A) (A) (A) (A) (A) (A)
                 (A) (A) (A) (A) (A) (A) (A) (A) (A) (A) (A) (A)
                 (A) (A) (A) (A) (A) (A) (A) (A) (A) (A) (A) (A)
                 (A) (A) (A) (A) (A) (A) (A) (A) (A) (A) (A) (A)
                 (A) (A) (A) (A) (A) (A) (A) (A) (A) (A) (A) (A)
                 (A) (A) (A) (A) (A) (A) (A) (A) (A) (A) (A) (A)
                 (A) (A) (A) (A) (A) (A) (A) (A) (A) (A) (A) (A)
                 (A) (A) (A) (A) (A) (A) (A) (A) (A) (A) (A) (A)
                 (A) (A) (A) (A) (A) (A) (A) (A) (A) (A) (A) (A)
                 (A) (A) (A) (A) (A) (A) (A) (A) (A) (A) (A) (A)
                 (A) (A) (A) (A) (A) (A) (A) (A) (A) (A) (A) (A)
                 (A) (A) (A) (A) (A) (A) (A) (A) (A) (A) (A) (A)
                 (A) (A) (A) (A) (A) (A) (A) (A) (A) (A) (A) (A)
                 (A) (A) (A) (A) (A) (A) (A) (A) (A) (A) (A) (A)
                 (A) (A) (A) (A) (A) (A) (A) (A) (A) (A) (A) (A)
                 (A) (A) (A) (A) (A) (A) (A) (A) (A) (A) (A) (A)
                 (A) (A) (A) (A) (A) (A) (A) (A) (A) (A) (A) (A)
                 (A) (A) (A) (A) (A) (A) (A) (A) (A) (A) (A) (A)
                 (A) (A) (A) (A) (A) (A) (A) (A) (A) (A) (A) (A)
                 (A) (A) (A) (A) (A) (A) (A) (A) (A) (A) (A) (A)
                 (A) (A) (A) (A) (A) (A) (A) (A) (A) (A) (A)
 Beta  Orbitals:
       Occupied  (A) (A) (A) (A) (A) (A) (A) (A) (A) (A) (A) (A)
                 (A) (A) (A) (A) (A) (A) (A) (A) (A) (A) (A) (A)
                 (A) (A) (A) (A) (A) (A) (A) (A) (A) (A) (A) (A)
                 (A) (A) (A) (A) (A) (A) (A) (A) (A) (A) (A) (A)
                 (A) (A) (A) (A) (A) (A) (A) (A) (A) (A) (A) (A)
                 (A) (A) (A) (A) (A) (A) (A) (A) (A) (A) (A) (A)
                 (A) (A) (A) (A) (A) (A) (A) (A) (A) (A) (A) (A)
                 (A) (A) (A) (A) (A) (A) (A) (A) (A) (A) (A) (A)
                 (A) (A) (A) (A) (A) (A) (A) (A) (A) (A) (A) (A)
                 (A) (A) (A) (A) (A) (A) (A) (A) (A) (A) (A) (A)
                 (A) (A) (A) (A) (A) (A) (A) (A) (A) (A) (A) (A)
                 (A) (A) (A) (A) (A) (A) (A) (A) (A) (A) (A) (A)
                 (A) (A) (A) (A) (A) (A) (A) (A) (A) (A) (A) (A)
                 (A) (A) (A) (A) (A) (A) (A) (A) (A) (A) (A) (A)
                 (A) (A) (A) (A) (A) (A) (A) (A) (A) (A) (A) (A)
                 (A) (A) (A) (A) (A) (A) (A) (A) (A) (A) (A) (A)
                 (A) (A) (A) (A) (A) (A) (A) (A) (A) (A) (A) (A)
                 (A) (A) (A) (A) (A) (A) (A) (A) (A) (A) (A) (A)
                 (A) (A) (A) (A) (A) (A) (A) (A) (A) (A) (A) (A)
                 (A) (A) (A) (A) (A) (A) (A) (A) (A) (A) (A) (A)
                 (A) (A) (A) (A) (A) (A) (A) (A) (A) (A) (A) (A)
                 (A) (A) (A) (A) (A) (A) (A) (A) (A) (A) (A) (A)
                 (A) (A) (A) (A) (A)
       Virtual   (A) (A) (A) (A) (A) (A) (A) (A) (A) (A) (A) (A)
                 (A) (A) (A) (A) (A) (A) (A) (A) (A) (A) (A) (A)
[...]
  Beta virt. eigenvalues --    4.96406   4.96829   4.97078   4.97494   4.98033
  Beta virt. eigenvalues --    4.98271   4.98738   4.99538   4.99639   4.99663
  Beta virt. eigenvalues --    5.00146   5.00960   5.01168   5.01212   5.02479
  Beta virt. eigenvalues --    5.03301   5.03554   5.03864   5.04016   5.04089
  Beta virt. eigenvalues --    5.04950   5.05068   5.05590   5.05775   5.05919
  Beta virt. eigenvalues --    5.07352   5.07522   5.07814   5.08355   5.08529
  Beta virt. eigenvalues --    5.08874   5.09410   5.09708   5.10497   5.11117
  Beta virt. eigenvalues --    5.11376   5.11490   5.11664   5.11925   5.12214
  Beta virt. eigenvalues --    5.12711   5.12916   5.13049   5.13656   5.13736
  Beta virt. eigenvalues --    5.13795   5.13970   5.14021   5.14301   5.14324
  Beta virt. eigenvalues --    5.14999   5.15701   5.15910   5.17111   5.17301
  Beta virt. eigenvalues --    5.17815   5.17937   5.18046   5.18571   5.18695
  Beta virt. eigenvalues --    5.18975   5.19239   5.19769   5.20561   5.21951
  Beta virt. eigenvalues --    5.22181   5.22500   5.22682   5.22922   5.22977
  Beta virt. eigenvalues --    5.23166   5.23379   5.24192   5.24321   5.25083
  Beta virt. eigenvalues --    5.25140   5.25352   5.25672   5.26427   5.26797
  Beta virt. eigenvalues --    5.26895   5.27062   5.27446   5.27566   5.28216
  Beta virt. eigenvalues --    5.28730   5.28780   5.29035   5.29134   5.29249
  Beta virt. eigenvalues --    5.29308   5.29587   5.29952   5.30025   5.30224
  Beta virt. eigenvalues --    5.30316   5.30669   5.30790   5.31099   5.31846
  Beta virt. eigenvalues --    5.32915   5.33338   5.33896   5.33979   5.34033
  Beta virt. eigenvalues --    5.34067   5.34465   5.34682   5.35078   5.36073
  Beta virt. eigenvalues --    5.36160   5.36741   5.37022   5.37167   5.37637
  Beta virt. eigenvalues --    5.37843   5.38165   5.38697   5.38950   5.39067
  Beta virt. eigenvalues --    5.39089   5.39230   5.39303   5.39658   5.40044
  Beta virt. eigenvalues --    5.40833   5.41080   5.41358   5.41403   5.41939
  Beta virt. eigenvalues --    5.42075   5.42991   5.43400   5.43768   5.44375
  Beta virt. eigenvalues --    5.44764   5.44979   5.45752   5.46321   5.46432
  Beta virt. eigenvalues --    5.46958   5.47787   5.48099   5.48763   5.49070
  Beta virt. eigenvalues --    5.49272   5.50683   5.50960   5.51537   5.51901
  Beta virt. eigenvalues --    5.52004   5.52222   5.53237   5.53516   5.54082
  Beta virt. eigenvalues --    5.54359   5.54890   5.55037   5.55516   5.55895
  Beta virt. eigenvalues --    5.56125   5.56759   5.57473   5.57959   5.58596
  Beta virt. eigenvalues --    5.58744   5.59223   5.59291   5.59338   5.59958
  Beta virt. eigenvalues --    5.60212   5.60371   5.60836   5.61347   5.61449
  Beta virt. eigenvalues --    5.61586   5.61966   5.62639   5.62751   5.62925
  Beta virt. eigenvalues --    5.64030   5.64640   5.65208   5.65813   5.66396
  Beta virt. eigenvalues --    5.66579   5.67529   5.68178   5.68302   5.68781
  Beta virt. eigenvalues --    5.69133   5.69185   5.69780   5.71315   5.71557
  Beta virt. eigenvalues --    5.72137   5.72718   5.73936   5.74491   5.74902
  Beta virt. eigenvalues --    5.75018   5.75760   5.75862   5.76868   5.77623
  Beta virt. eigenvalues --    5.78021   5.78789   5.80434   5.81098   5.82448
  Beta virt. eigenvalues --    5.84746   5.85968   5.89575   5.90856   5.92019
  Beta virt. eigenvalues --    5.93243   5.93566   5.94578   5.94873   5.95947
  Beta virt. eigenvalues --    5.96744   5.97462   5.99738   5.99912   6.00047
  Beta virt. eigenvalues --    6.00658   6.00844   6.01215   6.01484   6.01992
  Beta virt. eigenvalues --    6.02328   6.03284   6.03818   6.06234   6.07209
  Beta virt. eigenvalues --    6.07216   6.10807   6.10971   6.10999   6.12957
  Beta virt. eigenvalues --    6.13017   6.14477   6.15481   6.15520   6.16364
  Beta virt. eigenvalues --    6.16442   6.17400   6.18577   6.28060   6.31853
  Beta virt. eigenvalues --    6.31935   6.37338   6.40282   6.47678   6.53806
  Beta virt. eigenvalues --    6.53849   6.54584   6.54951   6.61224   6.61509
  Beta virt. eigenvalues --    6.61521   6.67300   6.68015   6.68041   6.69875
  Beta virt. eigenvalues --    6.82180   6.83130   6.95438   6.95568   6.97857
  Beta virt. eigenvalues --    6.98552   6.99690   7.00150   7.00436   7.06193
  Beta virt. eigenvalues --    7.06231   7.13491   7.18813   7.22878   7.23230
  Beta virt. eigenvalues --    7.25385   7.27049   7.34509   7.35291   7.36175
  Beta virt. eigenvalues --    7.49884   8.43789   8.46628   8.58375   8.59830
  Beta virt. eigenvalues --    8.80989   8.89709   8.91359   8.91825   8.92749
  Beta virt. eigenvalues --    9.01298  15.89900  22.83814  22.83870  22.83987
  Beta virt. eigenvalues --   22.85093  22.85604  22.85762  22.89417  22.90353
  Beta virt. eigenvalues --   22.90732  22.97557  23.03021  23.10768  23.13082
  Beta virt. eigenvalues --   23.13362  23.14684  23.15761  23.16136  23.16451
  Beta virt. eigenvalues --   23.16461  23.16828  23.16832  23.23006  23.25724
  Beta virt. eigenvalues --   23.25730  23.25761  23.26131  23.26146  23.26980
  Beta virt. eigenvalues --   23.27017  23.27199  23.27234  23.29006  23.31474
  Beta virt. eigenvalues --   23.32475  23.32492  23.33298  23.34668  23.35730
  Beta virt. eigenvalues --   23.35751  23.35764  23.37161  23.38165  23.38251
  Beta virt. eigenvalues --   23.38292  23.38379  23.40753  23.42372  23.44767
  Beta virt. eigenvalues --   23.48413  23.50821  23.60246  23.71045  23.73573
  Beta virt. eigenvalues --   23.74427  23.75742  23.78904  23.90224  24.01420
  Beta virt. eigenvalues --   24.02159  24.06747  24.06755  24.07252  24.07276
  Beta virt. eigenvalues --   24.11598  24.28932  24.33211  24.33572  24.45312
  Beta virt. eigenvalues --   24.45387  32.25623  33.14999  33.31773  33.44557
  Beta virt. eigenvalues --   33.44572  44.02128  44.14104  57.29835  57.55694
          Condensed to atoms (all electrons):
          Atomic-Atomic Spin Densities.
 Mulliken charges and spin densities:
               1          2
     1  C   -0.435832  -0.019305
     2  C    0.025651   0.204610
     3  C    0.057198  -0.026387
     4  C   -0.169378   0.008526
     5  C   -0.055137   0.006574
     6  C   -0.049474   0.000171
     7  C   -0.130524   0.000637
     8  C   -0.167361  -0.000440
     9  C    0.006111   0.001021
    10  N   -0.110588   0.000069
    11  C    0.007539  -0.000033
    12  C   -0.162892   0.000044
    13  C   -0.145611  -0.000023
    14  C   -0.170383   0.000052
    15  C   -0.145647  -0.000025
    16  C   -0.158965   0.000049
    17  C    0.010207  -0.000030
    18  C   -0.163910   0.000055
    19  C   -0.145876  -0.000023
    20  C   -0.170917   0.000049
    21  C   -0.145789  -0.000024
    22  C   -0.159708   0.000045
    23  C   -0.165993  -0.000450
    24  C   -0.131165   0.000730
    25  C    0.039452   0.105763
    26  C   -0.425387  -0.012900
    27  N   -0.136127   0.025601
    28  C    0.043854  -0.091078
    29  C    0.071388   0.476392
    30  C   -0.238304  -0.047873
    31  C   -0.183468   0.038167
    32  C   -0.106750  -0.021269
    33  C    0.014853   0.033733
    34  C    0.040791  -0.006772
    35  C   -0.146810   0.007774
    36  C   -0.112570  -0.003686
    37  C   -0.002141   0.007546
    38  C    0.042909  -0.000547
    39  C   -0.034174   0.006186
    40  C   -0.185964  -0.001541
    41  N   -0.074390   0.002254
    42  C    0.402971   0.000013
    43  O   -0.399529   0.001085
    44  O   -0.325047   0.000237
    45  C   -0.139909  -0.003280
    46  C   -0.168496   0.006584
    47  C   -0.105421  -0.021325
    48  C   -0.184629   0.038130
    49  C    0.042059  -0.091780
    50  C    0.026523   0.204665
    51  C   -0.436575  -0.019339
    52  C    0.057188  -0.026377
    53  C   -0.169519   0.008611
    54  C   -0.056360   0.006514
    55  C   -0.050049   0.000114
    56  C   -0.131768   0.000778
    57  C   -0.167155  -0.000478
    58  C    0.010208   0.001062
    59  N   -0.110492   0.000075
    60  C    0.007493  -0.000031
    61  C   -0.158123   0.000053
    62  C   -0.145618  -0.000027
    63  C   -0.170252   0.000055
    64  C   -0.145160  -0.000025
    65  C   -0.164065   0.000044
    66  C    0.009077  -0.000031
    67  C   -0.164811   0.000056
    68  C   -0.145351  -0.000024
    69  C   -0.170669   0.000052
    70  C   -0.145914  -0.000026
    71  C   -0.158406   0.000048
    72  C   -0.168931  -0.000468
    73  C   -0.130280   0.000693
    74  C    0.039572   0.105981
    75  C   -0.425547  -0.012944
    76  N   -0.136531   0.025597
    77  B    0.410997   0.003862
    78  F   -0.376866   0.000996
    79  F   -0.376881   0.000996
    80  H    0.142554   0.012455
    81  H    0.144402   0.006732
    82  H    0.115664   0.001537
    83  H    0.152981  -0.000016
    84  H    0.173972   0.000000
    85  H    0.173577  -0.000009
    86  H    0.157134   0.000001
    87  H    0.157073  -0.000003
    88  H    0.157032   0.000000
    89  H    0.171973  -0.000002
    90  H    0.173835  -0.000013
    91  H    0.157011   0.000001
    92  H    0.156929  -0.000002
    93  H    0.156947   0.000000
    94  H    0.171832  -0.000002
    95  H    0.173908  -0.000001
    96  H    0.153876  -0.000038
    97  H    0.147940   0.007687
    98  H    0.120768   0.001562
    99  H    0.148078   0.008217
   100  H    0.172469  -0.000845
   101  H    0.150487   0.000826
   102  H    0.157194  -0.000075
   103  H    0.149951   0.000091
   104  H    0.136048  -0.000002
   105  H    0.275832  -0.000009
   106  H    0.156123   0.000056
   107  H    0.157371  -0.000036
   108  H    0.149756   0.000826
   109  H    0.172445  -0.000851
   110  H    0.144524   0.006743
   111  H    0.115464   0.001523
   112  H    0.142680   0.012460
   113  H    0.153791  -0.000037
   114  H    0.173873  -0.000002
   115  H    0.171823  -0.000003
   116  H    0.157161   0.000000
   117  H    0.157165  -0.000003
   118  H    0.157114   0.000001
   119  H    0.173999  -0.000009
   120  H    0.174168  -0.000012
   121  H    0.157141   0.000001
   122  H    0.157136  -0.000003
   123  H    0.157138   0.000000
   124  H    0.171790  -0.000002
   125  H    0.173848   0.000001
   126  H    0.152653  -0.000012
   127  H    0.147993   0.008250
   128  H    0.147888   0.007674
   129  H    0.121033   0.001558
 Sum of Mulliken charges =  -1.00000   1.00000
 Mulliken charges and spin densities with hydrogens summed into heavy atoms:
               1          2
     1  C   -0.033212   0.001420
     2  C    0.025651   0.204610
     3  C    0.057198  -0.026387
     4  C   -0.169378   0.008526
     5  C   -0.055137   0.006574
     6  C   -0.049474   0.000171
     7  C    0.022457   0.000620
     8  C    0.006611  -0.000439
     9  C    0.006111   0.001021
    10  N   -0.110588   0.000069
    11  C    0.007539  -0.000033
    12  C    0.010685   0.000035
    13  C    0.011523  -0.000023
    14  C   -0.013310   0.000049
    15  C    0.011386  -0.000025
    16  C    0.013008   0.000047
    17  C    0.010207  -0.000030
    18  C    0.009925   0.000042
    19  C    0.011136  -0.000022
    20  C   -0.013988   0.000047
    21  C    0.011158  -0.000024
    22  C    0.012123   0.000043
    23  C    0.007915  -0.000451
    24  C    0.022712   0.000692
    25  C    0.039452   0.105763
    26  C   -0.008601   0.004566
    27  N   -0.136127   0.025601
    28  C    0.043854  -0.091078
    29  C    0.071388   0.476392
    30  C   -0.238304  -0.047873
    31  C   -0.010999   0.037321
    32  C    0.043737  -0.020443
    33  C    0.014853   0.033733
    34  C    0.040791  -0.006772
    35  C    0.010384   0.007698
    36  C    0.037381  -0.003595
    37  C   -0.002141   0.007546
    38  C    0.178957  -0.000549
    39  C   -0.034174   0.006186
    40  C   -0.185964  -0.001541
    41  N   -0.074390   0.002254
    42  C    0.402971   0.000013
    43  O   -0.399529   0.001085
    44  O   -0.049214   0.000227
    45  C    0.016215  -0.003223
    46  C   -0.011124   0.006548
    47  C    0.044335  -0.020499
    48  C   -0.012184   0.037278
    49  C    0.042059  -0.091780
    50  C    0.026523   0.204665
    51  C   -0.033907   0.001386
    52  C    0.057188  -0.026377
    53  C   -0.169519   0.008611
    54  C   -0.056360   0.006514
    55  C   -0.050049   0.000114
    56  C    0.022023   0.000741
    57  C    0.006718  -0.000480
    58  C    0.010208   0.001062
    59  N   -0.110492   0.000075
    60  C    0.007493  -0.000031
    61  C    0.013700   0.000050
    62  C    0.011542  -0.000026
    63  C   -0.013087   0.000052
    64  C    0.011954  -0.000025
    65  C    0.009934   0.000035
    66  C    0.009077  -0.000031
    67  C    0.009356   0.000044
    68  C    0.011791  -0.000024
    69  C   -0.013533   0.000050
    70  C    0.011224  -0.000026
    71  C    0.013385   0.000046
    72  C    0.004917  -0.000468
    73  C    0.022373   0.000681
    74  C    0.039572   0.105981
    75  C   -0.008633   0.004539
    76  N   -0.136531   0.025597
    77  B    0.410997   0.003862
    78  F   -0.376866   0.000996
    79  F   -0.376881   0.000996
 Electronic spatial extent (au):  <R**2>=         182549.1051
 Charge=             -1.0000 electrons
 Dipole moment (field-independent basis, Debye):
    X=             -0.3334    Y=              7.5139    Z=             -3.6308  Tot=              8.3518
 Quadrupole moment (field-independent basis, Debye-Ang):
   XX=           -433.0126   YY=           -541.3493   ZZ=           -461.4677
   XY=             -6.9395   XZ=             -4.8789   YZ=            -29.7110
 Traceless Quadrupole moment (field-independent basis, Debye-Ang):
   XX=             45.5973   YY=            -62.7395   ZZ=             17.1422
   XY=             -6.9395   XZ=             -4.8789   YZ=            -29.7110
 Octapole moment (field-independent basis, Debye-Ang**2):
  XXX=             12.0061  YYY=           -377.4396  ZZZ=            -56.7198  XYY=             -9.1378
  XXY=           -112.2803  XXZ=              2.9411  XZZ=            -43.3636  YZZ=           -131.0571
  YYZ=           -258.8686  XYZ=            105.1262
 Hexadecapole moment (field-independent basis, Debye-Ang**3):
 XXXX=        -175197.8984 YYYY=         -59529.3537 ZZZZ=          -4709.1251 XXXY=            -32.1856
 XXXZ=            232.0704 YYYX=           -507.1073 YYYZ=          -1979.8110 ZZZX=            -41.1357
 ZZZY=           -548.1491 XXYY=         -39593.9588 XXZZ=         -31628.2776 YYZZ=         -12267.1210
 XXYZ=           -142.7446 YYXZ=          -1060.4529 ZZXY=            -51.7781
 N-N= 1.015086566212D+04 E-N=-2.803678917516D+04  KE= 3.290076977333D+03
 Leave Link  601 at Fri Nov  7 04:34:55 2025, MaxMem= 30870077440 cpu:             225.9 elap:               4.1
 (Enter /public/software/gauss/g16/l9999.exe)
 1\1\GINC-CU015\SP\UM062X\def2TZVPP\C69H50B1F2N5O2(1-,2)\BAIDING\07-Nov
 -2025\0\\#p M062X/DEF2TZVPP scrf=(solvent=water) em=GD3\\Energy calcul
 ation for M100034884_reduced\\-1,2\C,0,3.178948,0.649697,0.302791\C,0,
 2.622503,-0.723597,0.072914\C,0,3.437599,-1.891658,-0.066153\C,0,4.850
 035,-1.941323,-0.059927\C,0,6.070872,-1.977137,-0.051654\C,0,7.493014,
 -2.028522,-0.044855\C,0,8.263936,-0.870717,0.195605\C,0,9.651569,-0.92
 0811,0.194736\C,0,10.328155,-2.133179,-0.031333\N,0,11.744315,-2.18579
 1,-0.024998\C,0,12.433095,-3.009354,-0.960656\C,0,12.027705,-3.053915,
 -2.304619\C,0,12.701611,-3.866841,-3.215054\C,0,13.797475,-4.63253,-2.
 808794\C,0,14.208114,-4.582538,-1.474253\C,0,13.52955,-3.786272,-0.552
 526\C,0,12.485621,-1.416268,0.915946\C,0,12.069516,-1.332408,2.254852\
 C,0,12.797398,-0.57382,3.170567\C,0,13.957592,0.096961,2.775245\C,0,14
 .378323,0.007426,1.445945\C,0,13.647238,-0.734035,0.518696\C,0,9.56620
 5,-3.292487,-0.264221\C,0,8.178841,-3.240143,-0.278402\C,0,2.586799,-3
 .001607,-0.193692\C,0,2.960064,-4.439214,-0.338846\N,0,1.296813,-2.563
 458,-0.148958\C,0,1.281972,-1.165426,-0.005266\C,0,0.038012,-0.466783,
 0.074708\C,0,0.022553,1.013429,0.148703\C,0,0.477496,1.802066,-0.92492
 3\C,0,0.448916,3.190704,-0.864095\C,0,-0.020219,3.859897,0.283999\C,0,
 -0.050348,5.334719,0.351896\C,0,0.094395,6.015316,1.578718\C,0,0.06002
 2,7.398723,1.634297\C,0,-0.123382,8.18062,0.469048\C,0,-0.150677,9.611
 177,0.640179\C,0,-0.333464,10.642029,-0.244364\C,0,-0.553983,10.491953
 ,-1.642323\N,0,-0.736535,10.396563,-2.7918\C,0,-0.309536,12.027096,0.2
 87784\O,0,-0.126131,12.317772,1.461228\O,0,-0.517138,12.951155,-0.6722
 17\C,0,-0.266869,7.497548,-0.761878\C,0,-0.229557,6.114703,-0.812634\C
 ,0,-0.463421,3.071054,1.364328\C,0,-0.450276,1.682712,1.29328\C,0,-1.1
 91782,-1.194659,0.079749\C,0,-2.541094,-0.774128,0.047776\C,0,-3.12618
 7,0.603842,-0.037637\C,0,-3.332382,-1.966535,0.060682\C,0,-4.743683,-2
 .041898,0.049099\C,0,-5.963849,-2.095857,0.037416\C,0,-7.385206,-2.164
 75,0.025463\C,0,-8.054937,-3.407066,-0.005423\C,0,-9.441662,-3.473572,
 -0.024833\C,0,-10.219478,-2.301523,0.001079\N,0,-11.634396,-2.369998,-
 0.011056\C,0,-12.308291,-3.395856,0.711506\C,0,-13.39533,-4.073128,0.1
 35563\C,0,-14.061011,-5.068648,0.8496\C,0,-13.646255,-5.41762,2.137319
 \C,0,-12.559871,-4.750457,2.709106\C,0,-11.899175,-3.741249,2.009859\C
 ,0,-12.392898,-1.414481,-0.74576\C,0,-11.994269,-1.024562,-2.034797\C,
 0,-12.739155,-0.0847,-2.745938\C,0,-13.898926,0.467228,-2.195836\C,0,-
 14.302507,0.073383,-0.917555\C,0,-13.554452,-0.852463,-0.191452\C,0,-9
 .558685,-1.060098,0.0395\C,0,-8.171889,-0.992775,0.04397\C,0,-2.459433
 ,-3.066459,0.069722\C,0,-2.803689,-4.518572,0.060528\N,0,-1.178486,-2.
 600156,0.073823\B,0,0.068279,-3.487186,-0.085816\F,0,0.179511,-4.37824
 ,1.00636\F,0,-0.026045,-4.258942,-1.266568\H,0,3.163701,1.275756,-0.59
 7876\H,0,2.628409,1.19478,1.074707\H,0,4.222297,0.57318,0.624537\H,0,7
 .762736,0.076176,0.369388\H,0,10.21907,-0.012794,0.367572\H,0,11.18746
 7,-2.450401,-2.631562\H,0,12.375021,-3.888823,-4.250658\H,0,14.324069,
 -5.258872,-3.522102\H,0,15.053884,-5.177246,-1.14153\H,0,13.845811,-3.
 765005,0.485045\H,0,11.178967,-1.863502,2.574091\H,0,12.461517,-0.5205
 95,4.20207\H,0,14.525672,0.680728,3.492809\H,0,15.274145,0.528875,1.12
 1425\H,0,13.972939,-0.786228,-0.514843\H,0,10.066871,-4.239908,-0.4318
 62\H,0,7.611079,-4.147684,-0.457352\H,0,2.514346,-4.877541,-1.238056\H
 ,0,4.0457,-4.538985,-0.402387\H,0,2.604909,-5.030921,0.511906\H,0,0.84
 9411,1.314819,-1.821081\H,0,0.816375,3.761433,-1.710999\H,0,0.260587,5
 .454558,2.492116\H,0,0.183681,7.899936,2.589892\H,0,-0.003376,9.947135
 ,1.664053\H,0,-0.493239,13.830027,-0.252094\H,0,-0.416843,8.047358,-1.
 682198\H,0,-0.369081,5.624116,-1.769875\H,0,-0.845777,3.548484,2.26088
 8\H,0,-0.805983,1.101794,2.138772\H,0,-2.5884,1.237761,-0.748248\H,0,-
 4.168136,0.53953,-0.366414\H,0,-3.122737,1.132935,0.923268\H,0,-7.4750
 56,-4.324196,-0.029626\H,0,-9.929482,-4.441418,-0.064336\H,0,-13.71390
 7,-3.818307,-0.869744\H,0,-14.899554,-5.582576,0.388767\H,0,-14.162418
 ,-6.198115,2.687577\H,0,-12.230803,-5.004641,3.712493\H,0,-11.066676,-
 3.217315,2.467555\H,0,-11.104028,-1.460072,-2.476172\H,0,-12.41689,0.2
 05128,-3.741849\H,0,-14.479959,1.19358,-2.755488\H,0,-15.197908,0.4983
 96,-0.473385\H,0,-13.866333,-1.141978,0.806569\H,0,-10.137817,-0.14364
 1,0.069522\H,0,-7.683522,-0.024104,0.077439\H,0,-2.442084,-5.0082,-0.8
 50322\H,0,-2.344159,-5.041864,0.905705\H,0,-3.886784,-4.646399,0.11683
 7\\Version=ES64L-G16RevA.03\State=2-A\HF=-3308.4119038\S2=0.770784\S2-
 1=0.\S2A=0.750342\RMSD=4.903e-09\Dipole=0.1311855,2.9561931,1.4284745\
 Quadrupole=33.9004476,-46.6452642,12.7448166,5.159313,-3.6273463,22.08
 93862\PG=C01 [X(C69H50B1F2N5O2)]\\@


 IF GOD HAD MEANT MAN TO SEE THE SUN RISE, HE
 WOULD HAVE SCHEDULED IT FOR A LATER HOUR.
 Job cpu time:       3 days  3 hours 44 minutes 29.0 seconds.
 Elapsed time:       0 days  1 hours 12 minutes  1.0 seconds.
 File lengths (MBytes):  RWF=  10609 Int=      0 D2E=      0 Chk=    686 Scr=      1
 Normal termination of Gaussian 16 at Fri Nov  7 04:34:57 2025.
