 Entering Gaussian System, Link 0=g16
 Input=M100480149_reduced_sp.gjf
 Output=M100480149_reduced_sp.log
 Initial command:
 /public/software/gauss/g16/l1.exe "/public/home/baiding/1101_v2_sp/tmp_M100480149_reduced_sp_1575143/Gau-1470420.inp" -scrdir="/public/home/baiding/1101_v2_sp/tmp_M100480149_reduced_sp_1575143/"
 Entering Link 1 = /public/software/gauss/g16/l1.exe PID=   1470421.
  
 Copyright (c) 1988,1990,1992,1993,1995,1998,2003,2009,2016,
            Gaussian, Inc.  All Rights Reserved.
  
 This is part of the Gaussian(R) 16 program.  It is based on
 the Gaussian(R) 09 system (copyright 2009, Gaussian, Inc.),
 the Gaussian(R) 03 system (copyright 2003, Gaussian, Inc.),
 the Gaussian(R) 98 system (copyright 1998, Gaussian, Inc.),
 the Gaussian(R) 94 system (copyright 1995, Gaussian, Inc.),
 the Gaussian 92(TM) system (copyright 1992, Gaussian, Inc.),
 the Gaussian 90(TM) system (copyright 1990, Gaussian, Inc.),
 the Gaussian 88(TM) system (copyright 1988, Gaussian, Inc.),
 the Gaussian 86(TM) system (copyright 1986, Carnegie Mellon
 University), and the Gaussian 82(TM) system (copyright 1983,
 Carnegie Mellon University). Gaussian is a federally registered
 trademark of Gaussian, Inc.
  
 This software contains proprietary and confidential information,
 including trade secrets, belonging to Gaussian, Inc.
  
 This software is provided under written license and may be
 used, copied, transmitted, or stored only in accord with that
 written license.
  
 The following legend is applicable only to US Government
 contracts under FAR:
  
                    RESTRICTED RIGHTS LEGEND
  
 Use, reproduction and disclosure by the US Government is
 subject to restrictions as set forth in subparagraphs (a)
 and (c) of the Commercial Computer Software - Restricted
 Rights clause in FAR 52.227-19.
  
 Gaussian, Inc.
 340 Quinnipiac St., Bldg. 40, Wallingford CT 06492
  
  
 ---------------------------------------------------------------
 Warning -- This program may not be used in any manner that
 competes with the business of Gaussian, Inc. or will provide
 assistance to any competitor of Gaussian, Inc.  The licensee
 of this program is prohibited from giving any competitor of
 Gaussian, Inc. access to this program.  By using this program,
 the user acknowledges that Gaussian, Inc. is engaged in the
 business of creating and licensing software in the field of
 computational chemistry and represents and warrants to the
 licensee that it is not a competitor of Gaussian, Inc. and that
 it will not use this program in any manner prohibited above.
 ---------------------------------------------------------------
  

 Cite this work as:
 Gaussian 16, Revision A.03,
 M. J. Frisch, G. W. Trucks, H. B. Schlegel, G. E. Scuseria, 
 M. A. Robb, J. R. Cheeseman, G. Scalmani, V. Barone, 
 G. A. Petersson, H. Nakatsuji, X. Li, M. Caricato, A. V. Marenich, 
 J. Bloino, B. G. Janesko, R. Gomperts, B. Mennucci, H. P. Hratchian, 
 J. V. Ortiz, A. F. Izmaylov, J. L. Sonnenberg, D. Williams-Young, 
 F. Ding, F. Lipparini, F. Egidi, J. Goings, B. Peng, A. Petrone, 
 T. Henderson, D. Ranasinghe, V. G. Zakrzewski, J. Gao, N. Rega, 
 G. Zheng, W. Liang, M. Hada, M. Ehara, K. Toyota, R. Fukuda, 
 J. Hasegawa, M. Ishida, T. Nakajima, Y. Honda, O. Kitao, H. Nakai, 
 T. Vreven, K. Throssell, J. A. Montgomery, Jr., J. E. Peralta, 
 F. Ogliaro, M. J. Bearpark, J. J. Heyd, E. N. Brothers, K. N. Kudin, 
 V. N. Staroverov, T. A. Keith, R. Kobayashi, J. Normand, 
 K. Raghavachari, A. P. Rendell, J. C. Burant, S. S. Iyengar, 
 J. Tomasi, M. Cossi, J. M. Millam, M. Klene, C. Adamo, R. Cammi, 
 J. W. Ochterski, R. L. Martin, K. Morokuma, O. Farkas, 
 J. B. Foresman, and D. J. Fox, Gaussian, Inc., Wallingford CT, 2016.
 
 ******************************************
 Gaussian 16:  ES64L-G16RevA.03 25-Dec-2016
                 8-Nov-2025 
 ******************************************
 %nprocshared=64
 Will use up to   64 processors via shared memory.
 %mem=230GB
 %chk=M100480149_reduced_sp.chk
 ----------------------------------------------
 #p M062X/DEF2TZVPP scrf=(solvent=water) em=GD3
 ----------------------------------------------
 1/38=1,172=1/1;
 2/12=2,17=6,18=5,40=1/2;
 3/5=44,7=202,11=2,25=1,30=1,70=2201,72=1,74=-55,124=31/1,2,3;
 4//1;
 5/5=2,38=5,53=1/2;
 6/7=2,8=2,9=2,10=2,28=1/1;
 99/5=1,9=1/99;
 Leave Link    1 at Sat Nov  8 06:57:35 2025, MaxMem= 30870077440 cpu:              23.2 elap:               0.4
 (Enter /public/software/gauss/g16/l101.exe)
 -----------------------------------------
 Energy calculation for M100480149_reduced
 -----------------------------------------
 Symbolic Z-matrix:
 Charge =  0 Multiplicity = 2
 C                     7.18473  -5.9495   -1.45973 
 O                     6.13894  -6.14876  -0.50322 
 C                     5.15382  -5.20088  -0.42116 
 C                     4.15223  -5.44142   0.53219 
 C                     3.1088   -4.53853   0.69018 
 C                     5.09523  -4.04835  -1.21342 
 C                     4.04219  -3.1482   -1.03922 
 C                     3.03884  -3.36694  -0.08666 
 C                     1.91573  -2.39543   0.05588 
 C                     0.57264  -2.85461  -0.23819 
 C                     0.25761  -4.13865  -0.67003 
 C                    -1.09073  -4.53378  -0.79103 
 N                    -1.38687  -5.83014  -1.22404 
 O                    -0.43501  -6.62899  -1.52737 
 O                    -2.60676  -6.20409  -1.31433 
 C                    -2.15617  -3.6537   -0.47043 
 C                    -1.8852   -2.35809  -0.08008 
 C                    -2.91     -1.36306   0.2297 
 C                    -4.34933  -1.75632   0.22298 
 C                    -5.08195  -1.79652   1.41498 
 C                    -6.42786  -2.16879   1.43239 
 C                    -7.06246  -2.51252   0.23323 
 O                    -8.37559  -2.8903    0.13226 
 C                    -9.15419  -2.93668   1.33219 
 C                    -6.34088  -2.48311  -0.96999 
 C                    -5.00188  -2.11268  -0.97107 
 C                    -2.53045  -0.10047   0.56763 
 O                    -1.18065   0.24172   0.66151 
 C                    -3.35946   1.07752   0.87679 
 C                    -3.00409   1.92733   1.94332 
 C                    -3.74626   3.06395   2.22516 
 C                    -4.861     3.3918    1.4366 
 O                    -5.52515   4.53185   1.79033 
 C                    -6.66091   4.9227    1.00978 
 C                    -5.22093   2.56493   0.36393 
 C                    -4.47066   1.42118   0.0938 
 C                    -0.50898  -1.94394   0.01706 
 C                    -0.22473  -0.63514   0.32845 
 N                     1.05872  -0.14221   0.32247 
 C                     1.33522   1.236     0.04545 
 C                     0.30251   2.00192  -0.7051 
 C                    -0.12652   1.5512   -1.96678 
 C                    -1.08112   2.2557   -2.68735 
 C                    -1.63811   3.43022  -2.15778 
 O                    -2.58139   4.04535  -2.93548 
 C                    -3.22755   5.21109  -2.41269 
 C                    -1.21558   3.89711  -0.90719 
 C                    -0.25303   3.18047  -0.19519 
 C                     2.56304   1.738     0.34833 
 C                     2.93582   3.13469  -0.03897 
 C                     2.9165    4.18366   0.89641 
 C                     3.28165   5.47445   0.53172 
 C                     3.67894   5.74795  -0.78554 
 O                     4.01437   7.051    -1.04936 
 C                     4.414     7.38407  -2.38225 
 C                     3.71096   4.7151   -1.72937 
 C                     3.34343   3.42267  -1.34616 
 C                     2.12796  -1.0807    0.43457 
 C                     3.34275  -0.51562   1.03118 
 C                     3.55459   0.88566   0.9996 
 C                     4.71892   1.4385    1.56661 
 C                     5.64498   0.62268   2.20977 
 O                     6.79332   1.0685    2.79595 
 C                     7.07683   2.47212   2.74937 
 C                     5.41124  -0.76131   2.29926 
 C                     4.28599  -1.31171   1.71783 
 H                     7.84988  -6.80749  -1.35548 
 H                     6.78958  -5.91748  -2.48077 
 H                     7.74248  -5.02952  -1.25383 
 H                     4.20917  -6.33942   1.13905 
 H                     2.34488  -4.73599   1.43577 
 H                     5.85076  -3.84594  -1.96253 
 H                     4.00401  -2.25757  -1.65913 
 H                     1.03146  -4.85844  -0.88927 
 H                    -3.17171  -4.01017  -0.55654 
 H                    -4.5965   -1.5328    2.34965 
 H                    -6.96242  -2.18965   2.37407 
 H                    -9.21597  -1.95061   1.80512 
 H                    -10.15158  -3.25536   1.02695 
 H                    -8.74356  -3.65943   2.04552 
 H                    -6.84627  -2.75051  -1.89248 
 H                    -4.45738  -2.08977  -1.91006 
 H                    -2.14424   1.68752   2.5598 
 H                    -3.47947   3.71247   3.05319 
 H                    -7.02691   5.84512   1.46165 
 H                    -6.37969   5.11265  -0.03157 
 H                    -7.4477    4.16178   1.04519 
 H                    -6.06908   2.80298  -0.2657 
 H                    -4.75027   0.80024  -0.7494 
 H                     0.29195   0.64241  -2.38896 
 H                    -1.41005   1.91088  -3.66234 
 H                    -3.76054   4.98325  -1.48283 
 H                    -2.51037   6.01997  -2.23726 
 H                    -3.94264   5.52089  -3.17559 
 H                    -1.63188   4.79944  -0.47706 
 H                     0.05413   3.53941   0.7809 
 H                     2.60586   3.98748   1.91825 
 H                     3.26003   6.28505   1.25319 
 H                     4.62782   8.45351  -2.36999 
 H                     5.31588   6.83645  -2.6768 
 H                     3.61238   7.18174  -3.10089 
 H                     4.01601   4.90015  -2.75205 
 H                     3.37113   2.62764  -2.08539 
 H                     4.8733    2.50662   1.50803 
 H                     6.29964   3.0499    3.26035 
 H                     8.02656   2.5993    3.26962 
 H                     7.17604   2.82142   1.71638 
 H                     6.11989  -1.38355   2.83546 
 H                     4.12309  -2.37464   1.82075 
 
 ITRead=  0  0  0  0  0  0  0  0  0  0  0  0  0  0  0  0  0  0  0  0
 ITRead=  0  0  0  0  0  0  0  0  0  0  0  0  0  0  0  0  0  0  0  0
 ITRead=  0  0  0  0  0  0  0  0  0  0  0  0  0  0  0  0  0  0  0  0
 ITRead=  0  0  0  0  0  0  0  0  0  0  0  0  0  0  0  0  0  0  0  0
 ITRead=  0  0  0  0  0  0  0  0  0  0  0  0  0  0  0  0  0  0  0  0
 ITRead=  0  0  0  0  0  0  0  0  0
 MicOpt= -1 -1 -1 -1 -1 -1 -1 -1 -1 -1 -1 -1 -1 -1 -1 -1 -1 -1 -1 -1
 MicOpt= -1 -1 -1 -1 -1 -1 -1 -1 -1 -1 -1 -1 -1 -1 -1 -1 -1 -1 -1 -1
 MicOpt= -1 -1 -1 -1 -1 -1 -1 -1 -1 -1 -1 -1 -1 -1 -1 -1 -1 -1 -1 -1
 MicOpt= -1 -1 -1 -1 -1 -1 -1 -1 -1 -1 -1 -1 -1 -1 -1 -1 -1 -1 -1 -1
 MicOpt= -1 -1 -1 -1 -1 -1 -1 -1 -1 -1 -1 -1 -1 -1 -1 -1 -1 -1 -1 -1
 MicOpt= -1 -1 -1 -1 -1 -1 -1 -1 -1
 NAtoms=    109 NQM=      109 NQMF=       0 NMMI=      0 NMMIF=      0
                NMic=       0 NMicF=      0.
                    Isotopes and Nuclear Properties:
 (Nuclear quadrupole moments (NQMom) in fm**2, nuclear magnetic moments (NMagM)
  in nuclear magnetons)

  Atom         1           2           3           4           5           6           7           8           9          10
 IAtWgt=          12          16          12          12          12          12          12          12          12          12
 AtmWgt=  12.0000000  15.9949146  12.0000000  12.0000000  12.0000000  12.0000000  12.0000000  12.0000000  12.0000000  12.0000000
 NucSpn=           0           0           0           0           0           0           0           0           0           0
 AtZEff=  -0.0000000  -0.0000000  -0.0000000  -0.0000000  -0.0000000  -0.0000000  -0.0000000  -0.0000000  -0.0000000  -0.0000000
 NQMom=    0.0000000   0.0000000   0.0000000   0.0000000   0.0000000   0.0000000   0.0000000   0.0000000   0.0000000   0.0000000
 NMagM=    0.0000000   0.0000000   0.0000000   0.0000000   0.0000000   0.0000000   0.0000000   0.0000000   0.0000000   0.0000000
 AtZNuc=   6.0000000   8.0000000   6.0000000   6.0000000   6.0000000   6.0000000   6.0000000   6.0000000   6.0000000   6.0000000

  Atom        11          12          13          14          15          16          17          18          19          20
 IAtWgt=          12          12          14          16          16          12          12          12          12          12
 AtmWgt=  12.0000000  12.0000000  14.0030740  15.9949146  15.9949146  12.0000000  12.0000000  12.0000000  12.0000000  12.0000000
 NucSpn=           0           0           2           0           0           0           0           0           0           0
 AtZEff=  -0.0000000  -0.0000000  -0.0000000  -0.0000000  -0.0000000  -0.0000000  -0.0000000  -0.0000000  -0.0000000  -0.0000000
 NQMom=    0.0000000   0.0000000   2.0440000   0.0000000   0.0000000   0.0000000   0.0000000   0.0000000   0.0000000   0.0000000
 NMagM=    0.0000000   0.0000000   0.4037610   0.0000000   0.0000000   0.0000000   0.0000000   0.0000000   0.0000000   0.0000000
 AtZNuc=   6.0000000   6.0000000   7.0000000   8.0000000   8.0000000   6.0000000   6.0000000   6.0000000   6.0000000   6.0000000

  Atom        21          22          23          24          25          26          27          28          29          30
 IAtWgt=          12          12          16          12          12          12          12          16          12          12
 AtmWgt=  12.0000000  12.0000000  15.9949146  12.0000000  12.0000000  12.0000000  12.0000000  15.9949146  12.0000000  12.0000000
 NucSpn=           0           0           0           0           0           0           0           0           0           0
 AtZEff=  -0.0000000  -0.0000000  -0.0000000  -0.0000000  -0.0000000  -0.0000000  -0.0000000  -0.0000000  -0.0000000  -0.0000000
 NQMom=    0.0000000   0.0000000   0.0000000   0.0000000   0.0000000   0.0000000   0.0000000   0.0000000   0.0000000   0.0000000
 NMagM=    0.0000000   0.0000000   0.0000000   0.0000000   0.0000000   0.0000000   0.0000000   0.0000000   0.0000000   0.0000000
 AtZNuc=   6.0000000   6.0000000   8.0000000   6.0000000   6.0000000   6.0000000   6.0000000   8.0000000   6.0000000   6.0000000

  Atom        31          32          33          34          35          36          37          38          39          40
 IAtWgt=          12          12          16          12          12          12          12          12          14          12
 AtmWgt=  12.0000000  12.0000000  15.9949146  12.0000000  12.0000000  12.0000000  12.0000000  12.0000000  14.0030740  12.0000000
 NucSpn=           0           0           0           0           0           0           0           0           2           0
 AtZEff=  -0.0000000  -0.0000000  -0.0000000  -0.0000000  -0.0000000  -0.0000000  -0.0000000  -0.0000000  -0.0000000  -0.0000000
 NQMom=    0.0000000   0.0000000   0.0000000   0.0000000   0.0000000   0.0000000   0.0000000   0.0000000   2.0440000   0.0000000
 NMagM=    0.0000000   0.0000000   0.0000000   0.0000000   0.0000000   0.0000000   0.0000000   0.0000000   0.4037610   0.0000000
 AtZNuc=   6.0000000   6.0000000   8.0000000   6.0000000   6.0000000   6.0000000   6.0000000   6.0000000   7.0000000   6.0000000

  Atom        41          42          43          44          45          46          47          48          49          50
 IAtWgt=          12          12          12          12          16          12          12          12          12          12
 AtmWgt=  12.0000000  12.0000000  12.0000000  12.0000000  15.9949146  12.0000000  12.0000000  12.0000000  12.0000000  12.0000000
 NucSpn=           0           0           0           0           0           0           0           0           0           0
 AtZEff=  -0.0000000  -0.0000000  -0.0000000  -0.0000000  -0.0000000  -0.0000000  -0.0000000  -0.0000000  -0.0000000  -0.0000000
 NQMom=    0.0000000   0.0000000   0.0000000   0.0000000   0.0000000   0.0000000   0.0000000   0.0000000   0.0000000   0.0000000
 NMagM=    0.0000000   0.0000000   0.0000000   0.0000000   0.0000000   0.0000000   0.0000000   0.0000000   0.0000000   0.0000000
 AtZNuc=   6.0000000   6.0000000   6.0000000   6.0000000   8.0000000   6.0000000   6.0000000   6.0000000   6.0000000   6.0000000

  Atom        51          52          53          54          55          56          57          58          59          60
 IAtWgt=          12          12          12          16          12          12          12          12          12          12
 AtmWgt=  12.0000000  12.0000000  12.0000000  15.9949146  12.0000000  12.0000000  12.0000000  12.0000000  12.0000000  12.0000000
 NucSpn=           0           0           0           0           0           0           0           0           0           0
 AtZEff=  -0.0000000  -0.0000000  -0.0000000  -0.0000000  -0.0000000  -0.0000000  -0.0000000  -0.0000000  -0.0000000  -0.0000000
 NQMom=    0.0000000   0.0000000   0.0000000   0.0000000   0.0000000   0.0000000   0.0000000   0.0000000   0.0000000   0.0000000
 NMagM=    0.0000000   0.0000000   0.0000000   0.0000000   0.0000000   0.0000000   0.0000000   0.0000000   0.0000000   0.0000000
 AtZNuc=   6.0000000   6.0000000   6.0000000   8.0000000   6.0000000   6.0000000   6.0000000   6.0000000   6.0000000   6.0000000

  Atom        61          62          63          64          65          66          67          68          69          70
 IAtWgt=          12          12          16          12          12          12           1           1           1           1
 AtmWgt=  12.0000000  12.0000000  15.9949146  12.0000000  12.0000000  12.0000000   1.0078250   1.0078250   1.0078250   1.0078250
 NucSpn=           0           0           0           0           0           0           1           1           1           1
 AtZEff=  -0.0000000  -0.0000000  -0.0000000  -0.0000000  -0.0000000  -0.0000000  -0.0000000  -0.0000000  -0.0000000  -0.0000000
 NQMom=    0.0000000   0.0000000   0.0000000   0.0000000   0.0000000   0.0000000   0.0000000   0.0000000   0.0000000   0.0000000
 NMagM=    0.0000000   0.0000000   0.0000000   0.0000000   0.0000000   0.0000000   2.7928460   2.7928460   2.7928460   2.7928460
 AtZNuc=   6.0000000   6.0000000   8.0000000   6.0000000   6.0000000   6.0000000   1.0000000   1.0000000   1.0000000   1.0000000

  Atom        71          72          73          74          75          76          77          78          79          80
 IAtWgt=           1           1           1           1           1           1           1           1           1           1
 AtmWgt=   1.0078250   1.0078250   1.0078250   1.0078250   1.0078250   1.0078250   1.0078250   1.0078250   1.0078250   1.0078250
 NucSpn=           1           1           1           1           1           1           1           1           1           1
 AtZEff=  -0.0000000  -0.0000000  -0.0000000  -0.0000000  -0.0000000  -0.0000000  -0.0000000  -0.0000000  -0.0000000  -0.0000000
 NQMom=    0.0000000   0.0000000   0.0000000   0.0000000   0.0000000   0.0000000   0.0000000   0.0000000   0.0000000   0.0000000
 NMagM=    2.7928460   2.7928460   2.7928460   2.7928460   2.7928460   2.7928460   2.7928460   2.7928460   2.7928460   2.7928460
 AtZNuc=   1.0000000   1.0000000   1.0000000   1.0000000   1.0000000   1.0000000   1.0000000   1.0000000   1.0000000   1.0000000

  Atom        81          82          83          84          85          86          87          88          89          90
 IAtWgt=           1           1           1           1           1           1           1           1           1           1
 AtmWgt=   1.0078250   1.0078250   1.0078250   1.0078250   1.0078250   1.0078250   1.0078250   1.0078250   1.0078250   1.0078250
 NucSpn=           1           1           1           1           1           1           1           1           1           1
 AtZEff=  -0.0000000  -0.0000000  -0.0000000  -0.0000000  -0.0000000  -0.0000000  -0.0000000  -0.0000000  -0.0000000  -0.0000000
 NQMom=    0.0000000   0.0000000   0.0000000   0.0000000   0.0000000   0.0000000   0.0000000   0.0000000   0.0000000   0.0000000
 NMagM=    2.7928460   2.7928460   2.7928460   2.7928460   2.7928460   2.7928460   2.7928460   2.7928460   2.7928460   2.7928460
 AtZNuc=   1.0000000   1.0000000   1.0000000   1.0000000   1.0000000   1.0000000   1.0000000   1.0000000   1.0000000   1.0000000

  Atom        91          92          93          94          95          96          97          98          99         100
 IAtWgt=           1           1           1           1           1           1           1           1           1           1
 AtmWgt=   1.0078250   1.0078250   1.0078250   1.0078250   1.0078250   1.0078250   1.0078250   1.0078250   1.0078250   1.0078250
 NucSpn=           1           1           1           1           1           1           1           1           1           1
 AtZEff=  -0.0000000  -0.0000000  -0.0000000  -0.0000000  -0.0000000  -0.0000000  -0.0000000  -0.0000000  -0.0000000  -0.0000000
 NQMom=    0.0000000   0.0000000   0.0000000   0.0000000   0.0000000   0.0000000   0.0000000   0.0000000   0.0000000   0.0000000
 NMagM=    2.7928460   2.7928460   2.7928460   2.7928460   2.7928460   2.7928460   2.7928460   2.7928460   2.7928460   2.7928460
 AtZNuc=   1.0000000   1.0000000   1.0000000   1.0000000   1.0000000   1.0000000   1.0000000   1.0000000   1.0000000   1.0000000

  Atom       101         102         103         104         105         106         107         108         109
 IAtWgt=           1           1           1           1           1           1           1           1           1
 AtmWgt=   1.0078250   1.0078250   1.0078250   1.0078250   1.0078250   1.0078250   1.0078250   1.0078250   1.0078250
 NucSpn=           1           1           1           1           1           1           1           1           1
 AtZEff=  -0.0000000  -0.0000000  -0.0000000  -0.0000000  -0.0000000  -0.0000000  -0.0000000  -0.0000000  -0.0000000
 NQMom=    0.0000000   0.0000000   0.0000000   0.0000000   0.0000000   0.0000000   0.0000000   0.0000000   0.0000000
 NMagM=    2.7928460   2.7928460   2.7928460   2.7928460   2.7928460   2.7928460   2.7928460   2.7928460   2.7928460
 AtZNuc=   1.0000000   1.0000000   1.0000000   1.0000000   1.0000000   1.0000000   1.0000000   1.0000000   1.0000000
 Leave Link  101 at Sat Nov  8 06:57:35 2025, MaxMem= 30870077440 cpu:               6.0 elap:               0.1
 (Enter /public/software/gauss/g16/l202.exe)
 Stoichiometry    C55H43N2O9(2)
 Framework group  C1[X(C55H43N2O9)]
 Deg. of freedom   321
 Full point group                 C1      NOp   1
 Largest Abelian subgroup         C1      NOp   1
 Largest concise Abelian subgroup C1      NOp   1
                         Standard orientation:                         
 ---------------------------------------------------------------------
 Center     Atomic      Atomic             Coordinates (Angstroms)
 Number     Number       Type             X           Y           Z
 ---------------------------------------------------------------------
      1          6           0       -7.184735   -5.949504    1.459730
      2          8           0       -6.138939   -6.148756    0.503221
      3          6           0       -5.153822   -5.200878    0.421162
      4          6           0       -4.152226   -5.441418   -0.532188
      5          6           0       -3.108802   -4.538529   -0.690178
      6          6           0       -5.095233   -4.048348    1.213421
      7          6           0       -4.042193   -3.148196    1.039224
      8          6           0       -3.038841   -3.366938    0.086661
      9          6           0       -1.915733   -2.395429   -0.055881
     10          6           0       -0.572635   -2.854612    0.238187
     11          6           0       -0.257613   -4.138653    0.670034
     12          6           0        1.090732   -4.533778    0.791025
     13          7           0        1.386869   -5.830142    1.224038
     14          8           0        0.435011   -6.628986    1.527366
     15          8           0        2.606762   -6.204092    1.314329
     16          6           0        2.156166   -3.653702    0.470427
     17          6           0        1.885203   -2.358091    0.080080
     18          6           0        2.910002   -1.363058   -0.229702
     19          6           0        4.349333   -1.756323   -0.222976
     20          6           0        5.081954   -1.796518   -1.414979
     21          6           0        6.427863   -2.168791   -1.432390
     22          6           0        7.062457   -2.512515   -0.233229
     23          8           0        8.375591   -2.890296   -0.132262
     24          6           0        9.154190   -2.936679   -1.332192
     25          6           0        6.340877   -2.483106    0.969993
     26          6           0        5.001879   -2.112676    0.971065
     27          6           0        2.530445   -0.100470   -0.567626
     28          8           0        1.180653    0.241716   -0.661512
     29          6           0        3.359464    1.077518   -0.876786
     30          6           0        3.004089    1.927327   -1.943318
     31          6           0        3.746260    3.063946   -2.225162
     32          6           0        4.860997    3.391804   -1.436603
     33          8           0        5.525151    4.531845   -1.790331
     34          6           0        6.660913    4.922701   -1.009776
     35          6           0        5.220930    2.564934   -0.363931
     36          6           0        4.470656    1.421178   -0.093799
     37          6           0        0.508983   -1.943940   -0.017064
     38          6           0        0.224734   -0.635140   -0.328447
     39          7           0       -1.058720   -0.142205   -0.322474
     40          6           0       -1.335218    1.236000   -0.045451
     41          6           0       -0.302507    2.001919    0.705097
     42          6           0        0.126518    1.551196    1.966783
     43          6           0        1.081122    2.255699    2.687353
     44          6           0        1.638106    3.430223    2.157783
     45          8           0        2.581391    4.045351    2.935478
     46          6           0        3.227551    5.211093    2.412692
     47          6           0        1.215575    3.897114    0.907194
     48          6           0        0.253028    3.180474    0.195193
     49          6           0       -2.563037    1.737996   -0.348326
     50          6           0       -2.935823    3.134691    0.038972
     51          6           0       -2.916499    4.183658   -0.896407
     52          6           0       -3.281649    5.474445   -0.531719
     53          6           0       -3.678944    5.747945    0.785542
     54          8           0       -4.014370    7.050997    1.049355
     55          6           0       -4.413999    7.384071    2.382245
     56          6           0       -3.710964    4.715098    1.729373
     57          6           0       -3.343427    3.422674    1.346156
     58          6           0       -2.127956   -1.080703   -0.434567
     59          6           0       -3.342749   -0.515618   -1.031179
     60          6           0       -3.554593    0.885662   -0.999603
     61          6           0       -4.718921    1.438504   -1.566609
     62          6           0       -5.644982    0.622678   -2.209767
     63          8           0       -6.793320    1.068502   -2.795953
     64          6           0       -7.076825    2.472116   -2.749365
     65          6           0       -5.411241   -0.761305   -2.299263
     66          6           0       -4.285989   -1.311707   -1.717830
     67          1           0       -7.849883   -6.807488    1.355484
     68          1           0       -6.789583   -5.917475    2.480770
     69          1           0       -7.742484   -5.029522    1.253833
     70          1           0       -4.209174   -6.339419   -1.139049
     71          1           0       -2.344878   -4.735992   -1.435768
     72          1           0       -5.850764   -3.845943    1.962532
     73          1           0       -4.004012   -2.257573    1.659132
     74          1           0       -1.031462   -4.858439    0.889268
     75          1           0        3.171710   -4.010168    0.556537
     76          1           0        4.596500   -1.532803   -2.349651
     77          1           0        6.962416   -2.189653   -2.374068
     78          1           0        9.215971   -1.950606   -1.805115
     79          1           0       10.151580   -3.255362   -1.026948
     80          1           0        8.743563   -3.659428   -2.045521
     81          1           0        6.846272   -2.750507    1.892481
     82          1           0        4.457383   -2.089768    1.910058
     83          1           0        2.144243    1.687519   -2.559797
     84          1           0        3.479471    3.712472   -3.053190
     85          1           0        7.026911    5.845115   -1.461650
     86          1           0        6.379690    5.112648    0.031570
     87          1           0        7.447700    4.161781   -1.045185
     88          1           0        6.069081    2.802978    0.265700
     89          1           0        4.750269    0.800238    0.749403
     90          1           0       -0.291946    0.642407    2.388964
     91          1           0        1.410052    1.910880    3.662341
     92          1           0        3.760535    4.983252    1.482829
     93          1           0        2.510365    6.019975    2.237257
     94          1           0        3.942644    5.520894    3.175593
     95          1           0        1.631881    4.799441    0.477061
     96          1           0       -0.054125    3.539409   -0.780896
     97          1           0       -2.605863    3.987484   -1.918245
     98          1           0       -3.260025    6.285053   -1.253194
     99          1           0       -4.627817    8.453509    2.369991
    100          1           0       -5.315878    6.836452    2.676800
    101          1           0       -3.612382    7.181737    3.100888
    102          1           0       -4.016010    4.900146    2.752052
    103          1           0       -3.371133    2.627639    2.085386
    104          1           0       -4.873302    2.506615   -1.508034
    105          1           0       -6.299639    3.049900   -3.260351
    106          1           0       -8.026558    2.599299   -3.269617
    107          1           0       -7.176038    2.821421   -1.716380
    108          1           0       -6.119886   -1.383550   -2.835462
    109          1           0       -4.123089   -2.374643   -1.820745
 ---------------------------------------------------------------------
 Rotational constants (GHZ):           0.0372903           0.0291139           0.0183392
 Leave Link  202 at Sat Nov  8 06:57:35 2025, MaxMem= 30870077440 cpu:               0.2 elap:               0.0
 (Enter /public/software/gauss/g16/l301.exe)
 Standard basis: def2TZVPP (5D, 7F)
 Ernie: Thresh=  0.10000D-02 Tol=  0.10000D-05 Strict=F.
 There are  3021 symmetry adapted cartesian basis functions of A   symmetry.
 There are  2648 symmetry adapted basis functions of A   symmetry.
  2648 basis functions,  4097 primitive gaussians,  3021 cartesian basis functions
   230 alpha electrons      229 beta electrons
       nuclear repulsion energy      9725.1204446505 Hartrees.
 IExCor= 4336 DFT=T Ex+Corr=M062X ExCW=0 ScaHFX=  0.540000
 ScaDFX=  1.000000  1.000000  1.000000  1.000000 ScalE2=  1.000000  1.000000
 IRadAn=      5 IRanWt=     -1 IRanGd=            0 ICorTp=0 IEmpDi=131
 NAtoms=  109 NActive=  109 NUniq=  109 SFac= 1.00D+00 NAtFMM=   60 NAOKFM=T Big=T
 Integral buffers will be    131072 words long.
 Raffenetti 2 integral format.
 Two-electron integral symmetry is turned on.
 R6Disp:  Grimme-D3 Dispersion energy=       -0.0134429674 Hartrees.
 Nuclear repulsion after empirical dispersion term =     9725.1070016830 Hartrees.
 ------------------------------------------------------------------------------
 Polarizable Continuum Model (PCM)
 =================================
 Model                : PCM.
 Atomic radii         : UFF (Universal Force Field).
 Polarization charges : Total charges.
 Charge compensation  : None.
 Solution method      : On-the-fly selection.
 Cavity type          : Scaled VdW (van der Waals Surface) (Alpha=1.100).
 Cavity algorithm     : GePol (No added spheres)
                        Default sphere list used, NSphG=  109.
                        Lebedev-Laikov grids with approx.  5.0 points / Ang**2.
                        Smoothing algorithm: York/Karplus (Gamma=1.0000).
                        Polarization charges: spherical gaussians, with
                                              point-specific exponents (IZeta= 3).
                        Self-potential: point-specific (ISelfS= 7).
                        Self-field    : sphere-specific E.n sum rule (ISelfD= 2).
 Solvent              : Water, Eps=  78.355300 Eps(inf)=   1.777849
 ------------------------------------------------------------------------------
 GePol: Number of generator spheres                  =     109
 GePol: Total number of spheres                      =     109
 GePol: Number of exposed spheres                    =     109 (100.00%)
 GePol: Number of points                             =    7510
 GePol: Average weight of points                     =       0.13
 GePol: Minimum weight of points                     =   0.15D-11
 GePol: Maximum weight of points                     =    0.20577
 GePol: Number of points with low weight             =     487
 GePol: Fraction of low-weight points (<1% of avg)   =       6.48%
 GePol: Cavity surface area                          =    958.055 Ang**2
 GePol: Cavity volume                                =   1140.810 Ang**3
 Leave Link  301 at Sat Nov  8 06:57:35 2025, MaxMem= 30870077440 cpu:               3.9 elap:               0.1
 (Enter /public/software/gauss/g16/l302.exe)
 NPDir=0 NMtPBC=     1 NCelOv=     1 NCel=       1 NClECP=     1 NCelD=      1
         NCelK=      1 NCelE2=     1 NClLst=     1 CellRange=     0.0.
 One-electron integrals computed using PRISM.
 One-electron integral symmetry used in STVInt
   1 Symmetry operations used in ECPInt.
 ECPInt:  NShTT=  484620 NPrTT= 1386861 LenC2=  293412 LenP2D=  548612.
 LDataN:  DoStor=T MaxTD1= 6 Len=  172
 Number of processors reduced to  58 by ecpmxn.
 NBasis=  2648 RedAO= T EigKep=  3.13D-06  NBF=  2648
 NBsUse=  2648 1.00D-06 EigRej= -1.00D+00 NBFU=  2648
 Precomputing XC quadrature grid using
 IXCGrd= 4 IRadAn=           5 IRanWt=          -1 IRanGd=           0 AccXCQ= 0.00D+00.
 Generated NRdTot=       0 NPtTot=           0 NUsed=           0 NTot=          32
 NSgBfM=  2690  2690  2690  2690  2690 MxSgAt=   109 MxSgA2=   109.
 Leave Link  302 at Sat Nov  8 06:57:58 2025, MaxMem= 30870077440 cpu:            1499.2 elap:              23.5
 (Enter /public/software/gauss/g16/l303.exe)
 DipDrv:  MaxL=1.
 Leave Link  303 at Sat Nov  8 06:57:59 2025, MaxMem= 30870077440 cpu:              54.4 elap:               1.0
 (Enter /public/software/gauss/g16/l401.exe)
 ExpMin= 9.52D-02 ExpMax= 2.70D+04 ExpMxC= 9.22D+02 IAcc=3 IRadAn=         5 AccDes= 0.00D+00
 Harris functional with IExCor= 1009 and IRadAn=       5 diagonalized for initial guess.
 HarFok:  IExCor= 1009 AccDes= 0.00D+00 IRadAn=         5 IDoV= 1 UseB2=F ITyADJ=14
 ICtDFT=  3500011 ScaDFX=  1.000000  1.000000  1.000000  1.000000
 FoFCou: FMM=F IPFlag=           0 FMFlag=      100000 FMFlg1=        2001
         NFxFlg=           0 DoJE=T BraDBF=F KetDBF=T FulRan=T
         wScrn=  0.000000 ICntrl=       500 IOpCl=  0 I1Cent=   200000004 NGrid=           0
         NMat0=    1 NMatS0=      1 NMatT0=    0 NMatD0=    1 NMtDS0=    0 NMtDT0=    0
 Petite list used in FoFCou.
 Harris En= -2906.61687598032    
 JPrj=0 DoOrth=F DoCkMO=F.
 Initial guess <Sx>= 0.0000 <Sy>= 0.0000 <Sz>= 0.5000 <S**2>= 0.7500 S= 0.5000
 Leave Link  401 at Sat Nov  8 06:58:23 2025, MaxMem= 30870077440 cpu:            1523.6 elap:              24.0
 (Enter /public/software/gauss/g16/l502.exe)
 Integral symmetry usage will be decided dynamically.
 UHF open shell SCF:
 Using DIIS extrapolation, IDIIS=  1040.
 NGot= 30870077440 LenX= 30851605905 LenY= 30842476443
 Requested convergence on RMS density matrix=1.00D-08 within 128 cycles.
 Requested convergence on MAX density matrix=1.00D-06.
 Requested convergence on             energy=1.00D-06.
 No special actions if energy rises.
 Fock matrices will be formed incrementally for  20 cycles.

 Cycle   1  Pass 1  IDiag  1:
 FoFJK:  IHMeth= 1 ICntrl=       0 DoSepK=F KAlg= 0 I1Cent=           0 FoldK=F
 IRaf= 560000000 NMat=       1 IRICut=       1 DoRegI=T DoRafI=F ISym2E= 0 IDoP0=0 IntGTp=1.
 FoFCou: FMM=T IPFlag=           0 FMFlag=      100000 FMFlg1=        2001
         NFxFlg=           0 DoJE=F BraDBF=F KetDBF=F FulRan=T
         wScrn=  0.000000 ICntrl=         0 IOpCl=  1 I1Cent=           0 NGrid=           0
         NMat0=    1 NMatS0=      1 NMatT0=    0 NMatD0=    1 NMtDS0=    0 NMtDT0=    0
 Symmetry not used in FoFCou.
 FMM levels:  10  Number of levels for PrismC:   9
 Inv3:  Mode=1 IEnd=   169200300.
 Iteration    1 A*A^-1 deviation from unit magnitude is 8.66D-15 for   1860.
 Iteration    1 A*A^-1 deviation from orthogonality  is 5.68D-15 for   7009   1843.
 Iteration    1 A^-1*A deviation from unit magnitude is 8.55D-15 for   7505.
 Iteration    1 A^-1*A deviation from orthogonality  is 3.97D-15 for   5636   5599.
 E= -2906.63154226741    
 DIIS: error= 1.13D-02 at cycle   1 NSaved=   1.
 NSaved= 1 IEnMin= 1 EnMin= -2906.63154226741     IErMin= 1 ErrMin= 1.13D-02
 ErrMax= 1.13D-02  0.00D+00 EMaxC= 1.00D-01 BMatC= 7.48D+00 BMatP= 7.48D+00
 IDIUse=3 WtCom= 8.87D-01 WtEn= 1.13D-01
 Coeff-Com:  0.100D+01
 Coeff-En:   0.100D+01
 Coeff:      0.100D+01
 Gap=     0.158 Goal=   None    Shift=    0.000
 Gap=     0.132 Goal=   None    Shift=    0.000
 GapD=    0.132 DampG=1.000 DampE=0.500 DampFc=0.5000 IDamp=-1.
 Damping current iteration by 5.00D-01
 RMSDP=1.97D-03 MaxDP=4.43D-01              OVMax= 2.89D-01

 Cycle   2  Pass 1  IDiag  1:
 RMSU=  9.79D-04    CP:  1.03D+00
 E= -2907.34005738554     Delta-E=       -0.708515118131 Rises=F Damp=T
 DIIS: error= 3.50D-03 at cycle   2 NSaved=   2.
 NSaved= 2 IEnMin= 2 EnMin= -2907.34005738554     IErMin= 2 ErrMin= 3.50D-03
 ErrMax= 3.50D-03  0.00D+00 EMaxC= 1.00D-01 BMatC= 8.31D-01 BMatP= 7.48D+00
 IDIUse=3 WtCom= 9.65D-01 WtEn= 3.50D-02
 Coeff-Com: -0.104D+00 0.110D+01
 Coeff-En:   0.000D+00 0.100D+01
 Coeff:     -0.100D+00 0.110D+01
 Gap=     0.162 Goal=   None    Shift=    0.000
 Gap=     0.191 Goal=   None    Shift=    0.000
 RMSDP=7.13D-04 MaxDP=1.71D-01 DE=-7.09D-01 OVMax= 2.42D-01

 Cycle   3  Pass 1  IDiag  1:
 RMSU=  7.11D-04    CP:  1.01D+00  1.02D+00
 E= -2907.96480610117     Delta-E=       -0.624748715632 Rises=F Damp=F
 DIIS: error= 6.24D-03 at cycle   3 NSaved=   3.
 NSaved= 3 IEnMin= 3 EnMin= -2907.96480610117     IErMin= 2 ErrMin= 3.50D-03
 ErrMax= 6.24D-03  0.00D+00 EMaxC= 1.00D-01 BMatC= 5.58D-01 BMatP= 8.31D-01
 IDIUse=3 WtCom= 9.38D-01 WtEn= 6.24D-02
 Coeff-Com: -0.142D+00 0.548D+00 0.594D+00
 Coeff-En:   0.000D+00 0.000D+00 0.100D+01
 Coeff:     -0.133D+00 0.513D+00 0.619D+00
 Gap=     0.151 Goal=   None    Shift=    0.000
 Gap=     0.166 Goal=   None    Shift=    0.000
 RMSDP=2.86D-04 MaxDP=6.58D-02 DE=-6.25D-01 OVMax= 9.92D-02

 Cycle   4  Pass 1  IDiag  1:
 RMSU=  2.52D-04    CP:  1.02D+00  1.08D+00  8.27D-01
 E= -2908.07100444411     Delta-E=       -0.106198342943 Rises=F Damp=F
 DIIS: error= 1.38D-03 at cycle   4 NSaved=   4.
 NSaved= 4 IEnMin= 4 EnMin= -2908.07100444411     IErMin= 4 ErrMin= 1.38D-03
 ErrMax= 1.38D-03  0.00D+00 EMaxC= 1.00D-01 BMatC= 8.01D-02 BMatP= 5.58D-01
 IDIUse=3 WtCom= 9.86D-01 WtEn= 1.38D-02
 Coeff-Com: -0.495D-01 0.134D+00 0.323D+00 0.593D+00
 Coeff-En:   0.000D+00 0.000D+00 0.105D+00 0.895D+00
 Coeff:     -0.488D-01 0.132D+00 0.320D+00 0.598D+00
 Gap=     0.146 Goal=   None    Shift=    0.000
 Gap=     0.161 Goal=   None    Shift=    0.000
 RMSDP=1.02D-04 MaxDP=2.00D-02 DE=-1.06D-01 OVMax= 4.13D-02

 Cycle   5  Pass 1  IDiag  1:
 RMSU=  6.55D-05    CP:  1.02D+00  1.07D+00  8.81D-01  7.36D-01
 E= -2908.08860388953     Delta-E=       -0.017599445422 Rises=F Damp=F
 DIIS: error= 5.38D-04 at cycle   5 NSaved=   5.
 NSaved= 5 IEnMin= 5 EnMin= -2908.08860388953     IErMin= 5 ErrMin= 5.38D-04
 ErrMax= 5.38D-04  0.00D+00 EMaxC= 1.00D-01 BMatC= 5.23D-03 BMatP= 8.01D-02
 IDIUse=3 WtCom= 9.95D-01 WtEn= 5.38D-03
 Coeff-Com: -0.140D-01 0.279D-01 0.121D+00 0.300D+00 0.565D+00
 Coeff-En:   0.000D+00 0.000D+00 0.000D+00 0.000D+00 0.100D+01
 Coeff:     -0.139D-01 0.278D-01 0.121D+00 0.298D+00 0.567D+00
 Gap=     0.148 Goal=   None    Shift=    0.000
 Gap=     0.161 Goal=   None    Shift=    0.000
 RMSDP=2.85D-05 MaxDP=6.87D-03 DE=-1.76D-02 OVMax= 1.14D-02

 Cycle   6  Pass 1  IDiag  1:
 RMSU=  2.56D-05    CP:  1.02D+00  1.08D+00  8.77D-01  7.53D-01  9.32D-01
 E= -2908.08983854947     Delta-E=       -0.001234659940 Rises=F Damp=F
 DIIS: error= 1.64D-04 at cycle   6 NSaved=   6.
 NSaved= 6 IEnMin= 6 EnMin= -2908.08983854947     IErMin= 6 ErrMin= 1.64D-04
 ErrMax= 1.64D-04  0.00D+00 EMaxC= 1.00D-01 BMatC= 4.83D-04 BMatP= 5.23D-03
 IDIUse=3 WtCom= 9.98D-01 WtEn= 1.64D-03
 Coeff-Com: -0.530D-03-0.191D-02 0.193D-01 0.622D-01 0.253D+00 0.668D+00
 Coeff-En:   0.000D+00 0.000D+00 0.000D+00 0.000D+00 0.000D+00 0.100D+01
 Coeff:     -0.529D-03-0.190D-02 0.193D-01 0.621D-01 0.253D+00 0.668D+00
 Gap=     0.149 Goal=   None    Shift=    0.000
 Gap=     0.163 Goal=   None    Shift=    0.000
 RMSDP=1.54D-05 MaxDP=3.02D-03 DE=-1.23D-03 OVMax= 1.38D-02

 Cycle   7  Pass 1  IDiag  1:
 RMSU=  1.32D-05    CP:  1.02D+00  1.08D+00  8.80D-01  7.57D-01  1.04D+00
                    CP:  9.94D-01
 E= -2908.09003211809     Delta-E=       -0.000193568612 Rises=F Damp=F
 DIIS: error= 1.94D-04 at cycle   7 NSaved=   7.
 NSaved= 7 IEnMin= 7 EnMin= -2908.09003211809     IErMin= 6 ErrMin= 1.64D-04
 ErrMax= 1.94D-04  0.00D+00 EMaxC= 1.00D-01 BMatC= 9.25D-05 BMatP= 4.83D-04
 IDIUse=3 WtCom= 9.98D-01 WtEn= 1.64D-03
 Coeff-Com:  0.245D-02-0.587D-02-0.133D-01-0.317D-01-0.833D-02 0.254D+00
 Coeff-Com:  0.802D+00
 Coeff-En:   0.000D+00 0.000D+00 0.000D+00 0.000D+00 0.000D+00 0.000D+00
 Coeff-En:   0.100D+01
 Coeff:      0.245D-02-0.586D-02-0.133D-01-0.316D-01-0.832D-02 0.254D+00
 Coeff:      0.803D+00
 Gap=     0.150 Goal=   None    Shift=    0.000
 Gap=     0.163 Goal=   None    Shift=    0.000
 RMSDP=1.10D-05 MaxDP=1.89D-03 DE=-1.94D-04 OVMax= 1.10D-02

 Cycle   8  Pass 1  IDiag  1:
 RMSU=  5.72D-06    CP:  1.02D+00  1.08D+00  8.79D-01  7.68D-01  1.10D+00
                    CP:  1.11D+00  1.50D+00
 E= -2908.09011469985     Delta-E=       -0.000082581764 Rises=F Damp=F
 DIIS: error= 1.17D-04 at cycle   8 NSaved=   8.
 NSaved= 8 IEnMin= 8 EnMin= -2908.09011469985     IErMin= 8 ErrMin= 1.17D-04
 ErrMax= 1.17D-04  0.00D+00 EMaxC= 1.00D-01 BMatC= 2.41D-05 BMatP= 9.25D-05
 IDIUse=3 WtCom= 9.99D-01 WtEn= 1.17D-03
 Coeff-Com:  0.106D-02-0.174D-02-0.877D-02-0.265D-01-0.703D-01-0.712D-01
 Coeff-Com:  0.214D+00 0.963D+00
 Coeff-En:   0.000D+00 0.000D+00 0.000D+00 0.000D+00 0.000D+00 0.000D+00
 Coeff-En:   0.000D+00 0.100D+01
 Coeff:      0.106D-02-0.174D-02-0.876D-02-0.265D-01-0.702D-01-0.711D-01
 Coeff:      0.214D+00 0.963D+00
 Gap=     0.150 Goal=   None    Shift=    0.000
 Gap=     0.163 Goal=   None    Shift=    0.000
 RMSDP=9.80D-06 MaxDP=1.52D-03 DE=-8.26D-05 OVMax= 1.30D-02

 Cycle   9  Pass 1  IDiag  1:
 RMSU=  4.10D-06    CP:  1.02D+00  1.09D+00  8.79D-01  7.70D-01  1.14D+00
                    CP:  1.19D+00  2.04D+00  1.66D+00
 E= -2908.09016385860     Delta-E=       -0.000049158751 Rises=F Damp=F
 DIIS: error= 9.41D-05 at cycle   9 NSaved=   9.
 NSaved= 9 IEnMin= 9 EnMin= -2908.09016385860     IErMin= 9 ErrMin= 9.41D-05
 ErrMax= 9.41D-05  0.00D+00 EMaxC= 1.00D-01 BMatC= 1.68D-05 BMatP= 2.41D-05
 IDIUse=1 WtCom= 1.00D+00 WtEn= 0.00D+00
 Coeff-Com: -0.525D-03 0.156D-02 0.265D-02 0.363D-02-0.246D-01-0.104D+00
 Coeff-Com: -0.306D+00 0.498D+00 0.929D+00
 Coeff:     -0.525D-03 0.156D-02 0.265D-02 0.363D-02-0.246D-01-0.104D+00
 Coeff:     -0.306D+00 0.498D+00 0.929D+00
 Gap=     0.151 Goal=   None    Shift=    0.000
 Gap=     0.164 Goal=   None    Shift=    0.000
 RMSDP=9.49D-06 MaxDP=1.72D-03 DE=-4.92D-05 OVMax= 1.02D-02

 Cycle  10  Pass 1  IDiag  1:
 RMSU=  2.35D-06    CP:  1.02D+00  1.09D+00  8.78D-01  7.74D-01  1.15D+00
                    CP:  1.20D+00  2.55D+00  2.38D+00  1.77D+00
 E= -2908.09019131842     Delta-E=       -0.000027459821 Rises=F Damp=F
 DIIS: error= 4.23D-05 at cycle  10 NSaved=  10.
 NSaved=10 IEnMin=10 EnMin= -2908.09019131842     IErMin=10 ErrMin= 4.23D-05
 ErrMax= 4.23D-05  0.00D+00 EMaxC= 1.00D-01 BMatC= 4.56D-06 BMatP= 1.68D-05
 IDIUse=1 WtCom= 1.00D+00 WtEn= 0.00D+00
 Coeff-Com: -0.701D-03 0.147D-02 0.529D-02 0.142D-01 0.182D-01-0.845D-02
 Coeff-Com: -0.279D+00-0.990D-01 0.263D+00 0.108D+01
 Coeff:     -0.701D-03 0.147D-02 0.529D-02 0.142D-01 0.182D-01-0.845D-02
 Coeff:     -0.279D+00-0.990D-01 0.263D+00 0.108D+01
 Gap=     0.151 Goal=   None    Shift=    0.000
 Gap=     0.164 Goal=   None    Shift=    0.000
 RMSDP=7.90D-06 MaxDP=1.41D-03 DE=-2.75D-05 OVMax= 8.83D-03

 Cycle  11  Pass 1  IDiag  1:
 RMSU=  1.14D-06    CP:  1.02D+00  1.09D+00  8.77D-01  7.77D-01  1.16D+00
                    CP:  1.21D+00  2.95D+00  2.99D+00  2.63D+00  1.81D+00
 E= -2908.09020352169     Delta-E=       -0.000012203272 Rises=F Damp=F
 DIIS: error= 1.81D-05 at cycle  11 NSaved=  11.
 NSaved=11 IEnMin=11 EnMin= -2908.09020352169     IErMin=11 ErrMin= 1.81D-05
 ErrMax= 1.81D-05  0.00D+00 EMaxC= 1.00D-01 BMatC= 1.47D-06 BMatP= 4.56D-06
 IDIUse=1 WtCom= 1.00D+00 WtEn= 0.00D+00
 Coeff-Com: -0.519D-05-0.101D-03 0.653D-03 0.307D-02 0.116D-01 0.342D-01
 Coeff-Com:  0.439D-02-0.112D+00-0.286D+00 0.335D+00 0.101D+01
 Coeff:     -0.519D-05-0.101D-03 0.653D-03 0.307D-02 0.116D-01 0.342D-01
 Coeff:      0.439D-02-0.112D+00-0.286D+00 0.335D+00 0.101D+01
 Gap=     0.151 Goal=   None    Shift=    0.000
 Gap=     0.164 Goal=   None    Shift=    0.000
 RMSDP=3.63D-06 MaxDP=9.97D-04 DE=-1.22D-05 OVMax= 3.86D-03

 Cycle  12  Pass 1  IDiag  1:
 RMSU=  2.16D-06    CP:  1.02D+00  1.09D+00  8.76D-01  7.78D-01  1.15D+00
                    CP:  1.20D+00  3.00D+00  3.00D+00  3.00D+00  2.37D+00
                    CP:  1.63D+00
 E= -2908.09020644748     Delta-E=       -0.000002925786 Rises=F Damp=F
 DIIS: error= 6.61D-06 at cycle  12 NSaved=  12.
 NSaved=12 IEnMin=12 EnMin= -2908.09020644748     IErMin=12 ErrMin= 6.61D-06
 ErrMax= 6.61D-06  0.00D+00 EMaxC= 1.00D-01 BMatC= 4.73D-07 BMatP= 1.47D-06
 IDIUse=1 WtCom= 1.00D+00 WtEn= 0.00D+00
 Coeff-Com:  0.226D-03-0.517D-03-0.155D-02-0.352D-02-0.219D-02 0.165D-01
 Coeff-Com:  0.889D-01 0.175D-02-0.235D+00-0.233D+00 0.421D+00 0.948D+00
 Coeff:      0.226D-03-0.517D-03-0.155D-02-0.352D-02-0.219D-02 0.165D-01
 Coeff:      0.889D-01 0.175D-02-0.235D+00-0.233D+00 0.421D+00 0.948D+00
 Gap=     0.151 Goal=   None    Shift=    0.000
 Gap=     0.164 Goal=   None    Shift=    0.000
 RMSDP=2.43D-06 MaxDP=5.82D-04 DE=-2.93D-06 OVMax= 2.36D-03

 Cycle  13  Pass 1  IDiag  1:
 RMSU=  1.13D-06    CP:  1.02D+00  1.09D+00  8.75D-01  7.79D-01  1.15D+00
                    CP:  1.20D+00  3.00D+00  3.00D+00  3.00D+00  2.76D+00
                    CP:  2.16D+00  1.80D+00
 E= -2908.09020728499     Delta-E=       -0.000000837512 Rises=F Damp=F
 DIIS: error= 1.85D-06 at cycle  13 NSaved=  13.
 NSaved=13 IEnMin=13 EnMin= -2908.09020728499     IErMin=13 ErrMin= 1.85D-06
 ErrMax= 1.85D-06  0.00D+00 EMaxC= 1.00D-01 BMatC= 8.53D-08 BMatP= 4.73D-07
 IDIUse=1 WtCom= 1.00D+00 WtEn= 0.00D+00
 Coeff-Com:  0.744D-04-0.153D-03-0.695D-03-0.187D-02-0.321D-02-0.118D-02
 Coeff-Com:  0.308D-01 0.281D-01-0.236D-01-0.156D+00-0.589D-01 0.335D+00
 Coeff-Com:  0.852D+00
 Coeff:      0.744D-04-0.153D-03-0.695D-03-0.187D-02-0.321D-02-0.118D-02
 Coeff:      0.308D-01 0.281D-01-0.236D-01-0.156D+00-0.589D-01 0.335D+00
 Coeff:      0.852D+00
 Gap=     0.151 Goal=   None    Shift=    0.000
 Gap=     0.164 Goal=   None    Shift=    0.000
 RMSDP=6.01D-07 MaxDP=1.31D-04 DE=-8.38D-07 OVMax= 5.60D-04

 Cycle  14  Pass 1  IDiag  1:
 RMSU=  2.31D-07    CP:  1.02D+00  1.09D+00  8.75D-01  7.79D-01  1.15D+00
                    CP:  1.20D+00  3.00D+00  3.00D+00  3.00D+00  2.85D+00
                    CP:  2.32D+00  1.98D+00  1.20D+00
 E= -2908.09020738755     Delta-E=       -0.000000102562 Rises=F Damp=F
 DIIS: error= 1.10D-06 at cycle  14 NSaved=  14.
 NSaved=14 IEnMin=14 EnMin= -2908.09020738755     IErMin=14 ErrMin= 1.10D-06
 ErrMax= 1.10D-06  0.00D+00 EMaxC= 1.00D-01 BMatC= 3.33D-08 BMatP= 8.53D-08
 IDIUse=1 WtCom= 1.00D+00 WtEn= 0.00D+00
 Coeff-Com: -0.258D-04 0.667D-04 0.711D-04 0.348D-04-0.968D-03-0.533D-02
 Coeff-Com: -0.888D-02 0.134D-01 0.546D-01-0.136D-01-0.149D+00-0.926D-01
 Coeff-Com:  0.446D+00 0.757D+00
 Coeff:     -0.258D-04 0.667D-04 0.711D-04 0.348D-04-0.968D-03-0.533D-02
 Coeff:     -0.888D-02 0.134D-01 0.546D-01-0.136D-01-0.149D+00-0.926D-01
 Coeff:      0.446D+00 0.757D+00
 Gap=     0.151 Goal=   None    Shift=    0.000
 Gap=     0.164 Goal=   None    Shift=    0.000
 RMSDP=2.36D-07 MaxDP=3.86D-05 DE=-1.03D-07 OVMax= 1.83D-04

 Cycle  15  Pass 1  IDiag  1:
 RMSU=  1.40D-07    CP:  1.02D+00  1.09D+00  8.75D-01  7.79D-01  1.15D+00
                    CP:  1.20D+00  3.00D+00  3.00D+00  3.00D+00  2.87D+00
                    CP:  2.39D+00  2.04D+00  1.26D+00  1.36D+00
 E= -2908.09020741605     Delta-E=       -0.000000028500 Rises=F Damp=F
 DIIS: error= 4.40D-07 at cycle  15 NSaved=  15.
 NSaved=15 IEnMin=15 EnMin= -2908.09020741605     IErMin=15 ErrMin= 4.40D-07
 ErrMax= 4.40D-07  0.00D+00 EMaxC= 1.00D-01 BMatC= 5.91D-09 BMatP= 3.33D-08
 IDIUse=1 WtCom= 1.00D+00 WtEn= 0.00D+00
 Coeff-Com: -0.247D-04 0.552D-04 0.183D-03 0.453D-03 0.505D-03-0.153D-02
 Coeff-Com: -0.970D-02-0.449D-02 0.207D-01 0.344D-01-0.297D-01-0.106D+00
 Coeff-Com: -0.935D-01 0.214D+00 0.975D+00
 Coeff:     -0.247D-04 0.552D-04 0.183D-03 0.453D-03 0.505D-03-0.153D-02
 Coeff:     -0.970D-02-0.449D-02 0.207D-01 0.344D-01-0.297D-01-0.106D+00
 Coeff:     -0.935D-01 0.214D+00 0.975D+00
 Gap=     0.151 Goal=   None    Shift=    0.000
 Gap=     0.164 Goal=   None    Shift=    0.000
 RMSDP=1.64D-07 MaxDP=2.41D-05 DE=-2.85D-08 OVMax= 1.25D-04

 Cycle  16  Pass 1  IDiag  1:
 RMSU=  5.60D-08    CP:  1.02D+00  1.09D+00  8.75D-01  7.79D-01  1.15D+00
                    CP:  1.20D+00  3.00D+00  3.00D+00  3.00D+00  2.88D+00
                    CP:  2.41D+00  2.09D+00  1.30D+00  1.70D+00  1.33D+00
 E= -2908.09020742533     Delta-E=       -0.000000009277 Rises=F Damp=F
 DIIS: error= 2.62D-07 at cycle  16 NSaved=  16.
 NSaved=16 IEnMin=16 EnMin= -2908.09020742533     IErMin=16 ErrMin= 2.62D-07
 ErrMax= 2.62D-07  0.00D+00 EMaxC= 1.00D-01 BMatC= 1.95D-09 BMatP= 5.91D-09
 IDIUse=1 WtCom= 1.00D+00 WtEn= 0.00D+00
 Coeff-Com: -0.256D-05 0.382D-05 0.526D-04 0.161D-03 0.416D-03 0.578D-03
 Coeff-Com: -0.138D-02-0.460D-02-0.356D-02 0.163D-01 0.211D-01-0.162D-01
 Coeff-Com: -0.141D+00-0.100D+00 0.386D+00 0.842D+00
 Coeff:     -0.256D-05 0.382D-05 0.526D-04 0.161D-03 0.416D-03 0.578D-03
 Coeff:     -0.138D-02-0.460D-02-0.356D-02 0.163D-01 0.211D-01-0.162D-01
 Coeff:     -0.141D+00-0.100D+00 0.386D+00 0.842D+00
 Gap=     0.151 Goal=   None    Shift=    0.000
 Gap=     0.164 Goal=   None    Shift=    0.000
 RMSDP=6.25D-08 MaxDP=9.49D-06 DE=-9.28D-09 OVMax= 4.40D-05

 Cycle  17  Pass 1  IDiag  1:
 RMSU=  2.39D-08    CP:  1.02D+00  1.09D+00  8.75D-01  7.79D-01  1.15D+00
                    CP:  1.20D+00  3.00D+00  3.00D+00  3.00D+00  2.88D+00
                    CP:  2.41D+00  2.08D+00  1.30D+00  1.84D+00  1.62D+00
                    CP:  1.46D+00
 E= -2908.09020742816     Delta-E=       -0.000000002829 Rises=F Damp=F
 DIIS: error= 1.99D-07 at cycle  17 NSaved=  17.
 NSaved=17 IEnMin=17 EnMin= -2908.09020742816     IErMin=17 ErrMin= 1.99D-07
 ErrMax= 1.99D-07  0.00D+00 EMaxC= 1.00D-01 BMatC= 4.69D-10 BMatP= 1.95D-09
 IDIUse=1 WtCom= 1.00D+00 WtEn= 0.00D+00
 Coeff-Com:  0.718D-05-0.163D-04-0.428D-04-0.981D-04-0.321D-04 0.665D-03
 Coeff-Com:  0.289D-02-0.217D-03-0.782D-02-0.672D-02 0.152D-01 0.322D-01
 Coeff-Com: -0.110D-01-0.983D-01-0.201D+00 0.222D+00 0.105D+01
 Coeff:      0.718D-05-0.163D-04-0.428D-04-0.981D-04-0.321D-04 0.665D-03
 Coeff:      0.289D-02-0.217D-03-0.782D-02-0.672D-02 0.152D-01 0.322D-01
 Coeff:     -0.110D-01-0.983D-01-0.201D+00 0.222D+00 0.105D+01
 Gap=     0.151 Goal=   None    Shift=    0.000
 Gap=     0.164 Goal=   None    Shift=    0.000
 RMSDP=4.33D-08 MaxDP=6.64D-06 DE=-2.83D-09 OVMax= 3.03D-05

 Cycle  18  Pass 1  IDiag  1:
 RMSU=  1.75D-08    CP:  1.02D+00  1.09D+00  8.75D-01  7.79D-01  1.15D+00
                    CP:  1.20D+00  3.00D+00  3.00D+00  3.00D+00  2.88D+00
                    CP:  2.41D+00  2.09D+00  1.30D+00  1.93D+00  1.74D+00
                    CP:  1.91D+00  1.52D+00
 E= -2908.09020742864     Delta-E=       -0.000000000484 Rises=F Damp=F
 DIIS: error= 1.73D-07 at cycle  18 NSaved=  18.
 NSaved=18 IEnMin=18 EnMin= -2908.09020742864     IErMin=18 ErrMin= 1.73D-07
 ErrMax= 1.73D-07  0.00D+00 EMaxC= 1.00D-01 BMatC= 2.03D-10 BMatP= 4.69D-10
 IDIUse=1 WtCom= 1.00D+00 WtEn= 0.00D+00
 Coeff-Com:  0.408D-05-0.887D-05-0.340D-04-0.867D-04-0.114D-03 0.223D-03
 Coeff-Com:  0.180D-02 0.946D-03-0.326D-02-0.712D-02 0.302D-02 0.207D-01
 Coeff-Com:  0.260D-01-0.279D-01-0.191D+00-0.936D-01 0.555D+00 0.715D+00
 Coeff:      0.408D-05-0.887D-05-0.340D-04-0.867D-04-0.114D-03 0.223D-03
 Coeff:      0.180D-02 0.946D-03-0.326D-02-0.712D-02 0.302D-02 0.207D-01
 Coeff:      0.260D-01-0.279D-01-0.191D+00-0.936D-01 0.555D+00 0.715D+00
 Gap=     0.151 Goal=   None    Shift=    0.000
 Gap=     0.164 Goal=   None    Shift=    0.000
 RMSDP=1.91D-08 MaxDP=2.14D-06 DE=-4.84D-10 OVMax= 1.17D-05

 Cycle  19  Pass 1  IDiag  1:
 RMSU=  7.70D-09    CP:  1.02D+00  1.09D+00  8.75D-01  7.79D-01  1.15D+00
                    CP:  1.20D+00  3.00D+00  3.00D+00  3.00D+00  2.88D+00
                    CP:  2.41D+00  2.08D+00  1.30D+00  1.96D+00  1.79D+00
                    CP:  2.06D+00  1.98D+00  1.07D+00
 E= -2908.09020742884     Delta-E=       -0.000000000198 Rises=F Damp=F
 DIIS: error= 8.74D-08 at cycle  19 NSaved=  19.
 NSaved=19 IEnMin=19 EnMin= -2908.09020742884     IErMin=19 ErrMin= 8.74D-08
 ErrMax= 8.74D-08  0.00D+00 EMaxC= 1.00D-01 BMatC= 4.82D-11 BMatP= 2.03D-10
 IDIUse=1 WtCom= 1.00D+00 WtEn= 0.00D+00
 Coeff-Com: -0.109D-05 0.250D-05 0.137D-05 0.304D-06-0.425D-04-0.163D-03
 Coeff-Com: -0.373D-03 0.555D-03 0.167D-02-0.451D-03-0.489D-02-0.360D-02
 Coeff-Com:  0.156D-01 0.273D-01-0.127D-02-0.138D+00-0.165D+00 0.327D+00
 Coeff-Com:  0.942D+00
 Coeff:     -0.109D-05 0.250D-05 0.137D-05 0.304D-06-0.425D-04-0.163D-03
 Coeff:     -0.373D-03 0.555D-03 0.167D-02-0.451D-03-0.489D-02-0.360D-02
 Coeff:      0.156D-01 0.273D-01-0.127D-02-0.138D+00-0.165D+00 0.327D+00
 Coeff:      0.942D+00
 Gap=     0.151 Goal=   None    Shift=    0.000
 Gap=     0.164 Goal=   None    Shift=    0.000
 RMSDP=1.21D-08 MaxDP=1.53D-06 DE=-1.98D-10 OVMax= 7.38D-06

 Cycle  20  Pass 1  IDiag  1:
 RMSU=  4.64D-09    CP:  1.02D+00  1.09D+00  8.75D-01  7.79D-01  1.15D+00
                    CP:  1.20D+00  3.00D+00  3.00D+00  3.00D+00  2.88D+00
                    CP:  2.41D+00  2.08D+00  1.30D+00  1.98D+00  1.82D+00
                    CP:  2.15D+00  2.16D+00  1.45D+00  1.30D+00
 E= -2908.09020742953     Delta-E=       -0.000000000686 Rises=F Damp=F
 DIIS: error= 2.58D-08 at cycle  20 NSaved=  20.
 NSaved=20 IEnMin=20 EnMin= -2908.09020742953     IErMin=20 ErrMin= 2.58D-08
 ErrMax= 2.58D-08  0.00D+00 EMaxC= 1.00D-01 BMatC= 9.22D-12 BMatP= 4.82D-11
 IDIUse=1 WtCom= 1.00D+00 WtEn= 0.00D+00
 Coeff-Com: -0.107D-05 0.237D-05 0.570D-05 0.132D-04-0.207D-05-0.105D-03
 Coeff-Com: -0.442D-03 0.894D-04 0.122D-02 0.895D-03-0.262D-02-0.493D-02
 Coeff-Com:  0.260D-02 0.164D-01 0.308D-01-0.466D-01-0.159D+00 0.330D-01
 Coeff-Com:  0.402D+00 0.727D+00
 Coeff:     -0.107D-05 0.237D-05 0.570D-05 0.132D-04-0.207D-05-0.105D-03
 Coeff:     -0.442D-03 0.894D-04 0.122D-02 0.895D-03-0.262D-02-0.493D-02
 Coeff:      0.260D-02 0.164D-01 0.308D-01-0.466D-01-0.159D+00 0.330D-01
 Coeff:      0.402D+00 0.727D+00
 Gap=     0.151 Goal=   None    Shift=    0.000
 Gap=     0.164 Goal=   None    Shift=    0.000
 RMSDP=3.61D-09 MaxDP=4.82D-07 DE=-6.86D-10 OVMax= 2.27D-06

 Error on total polarization charges =  0.02458
 SCF Done:  E(UM062X) =  -2908.09020743     A.U. after   20 cycles
            NFock= 20  Conv=0.36D-08     -V/T= 2.0055
 <Sx>= 0.0000 <Sy>= 0.0000 <Sz>= 0.5000 <S**2>= 0.7664 S= 0.5082
 <L.S>= 0.000000000000E+00
 KE= 2.892126524268D+03 PE=-2.622084257187D+04 EE= 1.069551883849D+04
 Annihilation of the first spin contaminant:
 S**2 before annihilation     0.7664,   after     0.7501
 Leave Link  502 at Sat Nov  8 08:23:00 2025, MaxMem= 30870077440 cpu:          321526.7 elap:            5076.4
 (Enter /public/software/gauss/g16/l601.exe)
 Copying SCF densities to generalized density rwf, IOpCl= 1 IROHF=0.
 Hyperfine terms turned off by default for NAtoms > 100.

 **********************************************************************

            Population analysis using the SCF density.

 **********************************************************************

 Orbital symmetries:
 Alpha Orbitals:
       Occupied  (A) (A) (A) (A) (A) (A) (A) (A) (A) (A) (A) (A)
                 (A) (A) (A) (A) (A) (A) (A) (A) (A) (A) (A) (A)
                 (A) (A) (A) (A) (A) (A) (A) (A) (A) (A) (A) (A)
                 (A) (A) (A) (A) (A) (A) (A) (A) (A) (A) (A) (A)
                 (A) (A) (A) (A) (A) (A) (A) (A) (A) (A) (A) (A)
                 (A) (A) (A) (A) (A) (A) (A) (A) (A) (A) (A) (A)
                 (A) (A) (A) (A) (A) (A) (A) (A) (A) (A) (A) (A)
                 (A) (A) (A) (A) (A) (A) (A) (A) (A) (A) (A) (A)
                 (A) (A) (A) (A) (A) (A) (A) (A) (A) (A) (A) (A)
                 (A) (A) (A) (A) (A) (A) (A) (A) (A) (A) (A) (A)
                 (A) (A) (A) (A) (A) (A) (A) (A) (A) (A) (A) (A)
                 (A) (A) (A) (A) (A) (A) (A) (A) (A) (A) (A) (A)
                 (A) (A) (A) (A) (A) (A) (A) (A) (A) (A) (A) (A)
                 (A) (A) (A) (A) (A) (A) (A) (A) (A) (A) (A) (A)
                 (A) (A) (A) (A) (A) (A) (A) (A) (A) (A) (A) (A)
                 (A) (A) (A) (A) (A) (A) (A) (A) (A) (A) (A) (A)
                 (A) (A) (A) (A) (A) (A) (A) (A) (A) (A) (A) (A)
                 (A) (A) (A) (A) (A) (A) (A) (A) (A) (A) (A) (A)
                 (A) (A) (A) (A) (A) (A) (A) (A) (A) (A) (A) (A)
                 (A) (A)
       Virtual   (A) (A) (A) (A) (A) (A) (A) (A) (A) (A) (A) (A)
                 (A) (A) (A) (A) (A) (A) (A) (A) (A) (A) (A) (A)
                 (A) (A) (A) (A) (A) (A) (A) (A) (A) (A) (A) (A)
                 (A) (A) (A) (A) (A) (A) (A) (A) (A) (A) (A) (A)
                 (A) (A) (A) (A) (A) (A) (A) (A) (A) (A) (A) (A)
                 (A) (A) (A) (A) (A) (A) (A) (A) (A) (A) (A) (A)
                 (A) (A) (A) (A) (A) (A) (A) (A) (A) (A) (A) (A)
                 (A) (A) (A) (A) (A) (A) (A) (A) (A) (A) (A) (A)
                 (A) (A) (A) (A) (A) (A) (A) (A) (A) (A) (A) (A)
                 (A) (A) (A) (A) (A) (A) (A) (A) (A) (A) (A) (A)
                 (A) (A) (A) (A) (A) (A) (A) (A) (A) (A) (A) (A)
                 (A) (A) (A) (A) (A) (A) (A) (A) (A) (A) (A) (A)
                 (A) (A) (A) (A) (A) (A) (A) (A) (A) (A) (A) (A)
                 (A) (A) (A) (A) (A) (A) (A) (A) (A) (A) (A) (A)
                 (A) (A) (A) (A) (A) (A) (A) (A) (A) (A) (A) (A)
                 (A) (A) (A) (A) (A) (A) (A) (A) (A) (A) (A) (A)
                 (A) (A) (A) (A) (A) (A) (A) (A) (A) (A) (A) (A)
                 (A) (A) (A) (A) (A) (A) (A) (A) (A) (A) (A) (A)
                 (A) (A) (A) (A) (A) (A) (A) (A) (A) (A) (A) (A)
                 (A) (A) (A) (A) (A) (A) (A) (A) (A) (A) (A) (A)
                 (A) (A) (A) (A) (A) (A) (A) (A) (A) (A) (A) (A)
                 (A) (A) (A) (A) (A) (A) (A) (A) (A) (A) (A) (A)
                 (A) (A) (A) (A) (A) (A) (A) (A) (A) (A) (A) (A)
                 (A) (A) (A) (A) (A) (A) (A) (A) (A) (A) (A) (A)
                 (A) (A) (A) (A) (A) (A) (A) (A) (A) (A) (A) (A)
                 (A) (A) (A) (A) (A) (A) (A) (A) (A) (A) (A) (A)
                 (A) (A) (A) (A) (A) (A) (A) (A) (A) (A) (A) (A)
                 (A) (A) (A) (A) (A) (A) (A) (A) (A) (A) (A) (A)
                 (A) (A) (A) (A) (A) (A) (A) (A) (A) (A) (A) (A)
                 (A) (A) (A) (A) (A) (A) (A) (A) (A) (A) (A) (A)
                 (A) (A) (A) (A) (A) (A) (A) (A) (A) (A) (A) (A)
                 (A) (A) (A) (A) (A) (A) (A) (A) (A) (A) (A) (A)
                 (A) (A) (A) (A) (A) (A) (A) (A) (A) (A) (A) (A)
                 (A) (A) (A) (A) (A) (A) (A) (A) (A) (A) (A) (A)
                 (A) (A) (A) (A) (A) (A) (A) (A) (A) (A) (A) (A)
                 (A) (A) (A) (A) (A) (A) (A) (A) (A) (A) (A) (A)
                 (A) (A) (A) (A) (A) (A) (A) (A) (A) (A) (A) (A)
                 (A) (A) (A) (A) (A) (A) (A) (A) (A) (A) (A) (A)
                 (A) (A) (A) (A) (A) (A) (A) (A) (A) (A) (A) (A)
                 (A) (A) (A) (A) (A) (A) (A) (A) (A) (A) (A) (A)
                 (A) (A) (A) (A) (A) (A) (A) (A) (A) (A) (A) (A)
                 (A) (A) (A) (A) (A) (A) (A) (A) (A) (A) (A) (A)
                 (A) (A) (A) (A) (A) (A) (A) (A) (A) (A) (A) (A)
                 (A) (A) (A) (A) (A) (A) (A) (A) (A) (A) (A) (A)
                 (A) (A) (A) (A) (A) (A) (A) (A) (A) (A) (A) (A)
                 (A) (A) (A) (A) (A) (A) (A) (A) (A) (A) (A) (A)
                 (A) (A) (A) (A) (A) (A) (A) (A) (A) (A) (A) (A)
                 (A) (A) (A) (A) (A) (A) (A) (A) (A) (A) (A) (A)
                 (A) (A) (A) (A) (A) (A) (A) (A) (A) (A) (A) (A)
                 (A) (A) (A) (A) (A) (A) (A) (A) (A) (A) (A) (A)
                 (A) (A) (A) (A) (A) (A) (A) (A) (A) (A) (A) (A)
                 (A) (A) (A) (A) (A) (A) (A) (A) (A) (A) (A) (A)
                 (A) (A) (A) (A) (A) (A) (A) (A) (A) (A) (A) (A)
                 (A) (A) (A) (A) (A) (A) (A) (A) (A) (A) (A) (A)
                 (A) (A) (A) (A) (A) (A) (A) (A) (A) (A) (A) (A)
                 (A) (A) (A) (A) (A) (A) (A) (A) (A) (A) (A) (A)
                 (A) (A) (A) (A) (A) (A) (A) (A) (A) (A) (A) (A)
                 (A) (A) (A) (A) (A) (A) (A) (A) (A) (A) (A) (A)
                 (A) (A) (A) (A) (A) (A) (A) (A) (A) (A) (A) (A)
                 (A) (A) (A) (A) (A) (A) (A) (A) (A) (A) (A) (A)
                 (A) (A) (A) (A) (A) (A) (A) (A) (A) (A) (A) (A)
                 (A) (A) (A) (A) (A) (A) (A) (A) (A) (A) (A) (A)
                 (A) (A) (A) (A) (A) (A) (A) (A) (A) (A) (A) (A)
                 (A) (A) (A) (A) (A) (A) (A) (A) (A) (A) (A) (A)
                 (A) (A) (A) (A) (A) (A) (A) (A) (A) (A) (A) (A)
                 (A) (A) (A) (A) (A) (A) (A) (A) (A) (A) (A) (A)
                 (A) (A) (A) (A) (A) (A) (A) (A) (A) (A) (A) (A)
                 (A) (A) (A) (A) (A) (A) (A) (A) (A) (A) (A) (A)
                 (A) (A) (A) (A) (A) (A) (A) (A) (A) (A) (A) (A)
                 (A) (A) (A) (A) (A) (A) (A) (A) (A) (A) (A) (A)
                 (A) (A) (A) (A) (A) (A) (A) (A) (A) (A) (A) (A)
                 (A) (A) (A) (A) (A) (A) (A) (A) (A) (A) (A) (A)
                 (A) (A) (A) (A) (A) (A) (A) (A) (A) (A) (A) (A)
                 (A) (A) (A) (A) (A) (A) (A) (A) (A) (A) (A) (A)
                 (A) (A) (A) (A) (A) (A) (A) (A) (A) (A) (A) (A)
                 (A) (A) (A) (A) (A) (A) (A) (A) (A) (A) (A) (A)
                 (A) (A) (A) (A) (A) (A) (A) (A) (A) (A) (A) (A)
                 (A) (A) (A) (A) (A) (A) (A) (A) (A) (A) (A) (A)
                 (A) (A) (A) (A) (A) (A) (A) (A) (A) (A) (A) (A)
                 (A) (A) (A) (A) (A) (A) (A) (A) (A) (A) (A) (A)
                 (A) (A) (A) (A) (A) (A) (A) (A) (A) (A) (A) (A)
                 (A) (A) (A) (A) (A) (A) (A) (A) (A) (A) (A) (A)
                 (A) (A) (A) (A) (A) (A) (A) (A) (A) (A) (A) (A)
                 (A) (A) (A) (A) (A) (A) (A) (A) (A) (A) (A) (A)
                 (A) (A) (A) (A) (A) (A) (A) (A) (A) (A) (A) (A)
                 (A) (A) (A) (A) (A) (A) (A) (A) (A) (A) (A) (A)
                 (A) (A) (A) (A) (A) (A) (A) (A) (A) (A) (A) (A)
                 (A) (A) (A) (A) (A) (A) (A) (A) (A) (A) (A) (A)
                 (A) (A) (A) (A) (A) (A) (A) (A) (A) (A) (A) (A)
                 (A) (A) (A) (A) (A) (A) (A) (A) (A) (A) (A) (A)
                 (A) (A) (A) (A) (A) (A) (A) (A) (A) (A) (A) (A)
                 (A) (A) (A) (A) (A) (A) (A) (A) (A) (A) (A) (A)
                 (A) (A) (A) (A) (A) (A) (A) (A) (A) (A) (A) (A)
                 (A) (A) (A) (A) (A) (A) (A) (A) (A) (A) (A) (A)
                 (A) (A) (A) (A) (A) (A) (A) (A) (A) (A) (A) (A)
                 (A) (A) (A) (A) (A) (A) (A) (A) (A) (A) (A) (A)
                 (A) (A) (A) (A) (A) (A) (A) (A) (A) (A) (A) (A)
                 (A) (A) (A) (A) (A) (A) (A) (A) (A) (A) (A) (A)
                 (A) (A) (A) (A) (A) (A) (A) (A) (A) (A) (A) (A)
                 (A) (A) (A) (A) (A) (A) (A) (A) (A) (A) (A) (A)
                 (A) (A) (A) (A) (A) (A) (A) (A) (A) (A) (A) (A)
                 (A) (A) (A) (A) (A) (A) (A) (A) (A) (A) (A) (A)
                 (A) (A) (A) (A) (A) (A) (A) (A) (A) (A) (A) (A)
                 (A) (A) (A) (A) (A) (A) (A) (A) (A) (A) (A) (A)
                 (A) (A) (A) (A) (A) (A) (A) (A) (A) (A) (A) (A)
                 (A) (A) (A) (A) (A) (A) (A) (A) (A) (A) (A) (A)
                 (A) (A) (A) (A) (A) (A) (A) (A) (A) (A) (A) (A)
                 (A) (A) (A) (A) (A) (A) (A) (A) (A) (A) (A) (A)
                 (A) (A) (A) (A) (A) (A) (A) (A) (A) (A) (A) (A)
                 (A) (A) (A) (A) (A) (A) (A) (A) (A) (A) (A) (A)
                 (A) (A) (A) (A) (A) (A) (A) (A) (A) (A) (A) (A)
                 (A) (A) (A) (A) (A) (A) (A) (A) (A) (A) (A) (A)
                 (A) (A) (A) (A) (A) (A) (A) (A) (A) (A) (A) (A)
                 (A) (A) (A) (A) (A) (A) (A) (A) (A) (A) (A) (A)
                 (A) (A) (A) (A) (A) (A) (A) (A) (A) (A) (A) (A)
                 (A) (A) (A) (A) (A) (A) (A) (A) (A) (A) (A) (A)
                 (A) (A) (A) (A) (A) (A) (A) (A) (A) (A) (A) (A)
                 (A) (A) (A) (A) (A) (A) (A) (A) (A) (A) (A) (A)
                 (A) (A) (A) (A) (A) (A) (A) (A) (A) (A) (A) (A)
                 (A) (A) (A) (A) (A) (A) (A) (A) (A) (A) (A) (A)
                 (A) (A) (A) (A) (A) (A) (A) (A) (A) (A) (A) (A)
                 (A) (A) (A) (A) (A) (A) (A) (A) (A) (A) (A) (A)
                 (A) (A) (A) (A) (A) (A) (A) (A) (A) (A) (A) (A)
                 (A) (A) (A) (A) (A) (A) (A) (A) (A) (A) (A) (A)
                 (A) (A) (A) (A) (A) (A) (A) (A) (A) (A) (A) (A)
                 (A) (A) (A) (A) (A) (A) (A) (A) (A) (A) (A) (A)
                 (A) (A) (A) (A) (A) (A) (A) (A) (A) (A) (A) (A)
                 (A) (A) (A) (A) (A) (A) (A) (A) (A) (A) (A) (A)
                 (A) (A) (A) (A) (A) (A) (A) (A) (A) (A) (A) (A)
                 (A) (A) (A) (A) (A) (A) (A) (A) (A) (A) (A) (A)
                 (A) (A) (A) (A) (A) (A) (A) (A) (A) (A) (A) (A)
                 (A) (A) (A) (A) (A) (A) (A) (A) (A) (A) (A) (A)
                 (A) (A) (A) (A) (A) (A) (A) (A) (A) (A) (A) (A)
                 (A) (A) (A) (A) (A) (A) (A) (A) (A) (A) (A) (A)
                 (A) (A) (A) (A) (A) (A) (A) (A) (A) (A) (A) (A)
                 (A) (A) (A) (A) (A) (A) (A) (A) (A) (A) (A) (A)
                 (A) (A) (A) (A) (A) (A) (A) (A) (A) (A) (A) (A)
                 (A) (A) (A) (A) (A) (A) (A) (A) (A) (A) (A) (A)
                 (A) (A) (A) (A) (A) (A) (A) (A) (A) (A) (A) (A)
                 (A) (A) (A) (A) (A) (A) (A) (A) (A) (A) (A) (A)
                 (A) (A) (A) (A) (A) (A) (A) (A) (A) (A) (A) (A)
                 (A) (A) (A) (A) (A) (A) (A) (A) (A) (A) (A) (A)
                 (A) (A) (A) (A) (A) (A) (A) (A) (A) (A) (A) (A)
                 (A) (A) (A) (A) (A) (A) (A) (A) (A) (A) (A) (A)
                 (A) (A) (A) (A) (A) (A) (A) (A) (A) (A) (A) (A)
                 (A) (A) (A) (A) (A) (A) (A) (A) (A) (A) (A) (A)
                 (A) (A) (A) (A) (A) (A) (A) (A) (A) (A) (A) (A)
                 (A) (A) (A) (A) (A) (A) (A) (A) (A) (A) (A) (A)
                 (A) (A) (A) (A) (A) (A) (A) (A) (A) (A) (A) (A)
                 (A) (A) (A) (A) (A) (A) (A) (A) (A) (A) (A) (A)
                 (A) (A) (A) (A) (A) (A) (A) (A) (A) (A) (A) (A)
                 (A) (A) (A) (A) (A) (A) (A) (A) (A) (A) (A) (A)
                 (A) (A) (A) (A) (A) (A) (A) (A) (A) (A) (A) (A)
                 (A) (A) (A) (A) (A) (A) (A) (A) (A) (A) (A) (A)
                 (A) (A) (A) (A) (A) (A) (A) (A) (A) (A) (A) (A)
                 (A) (A) (A) (A) (A) (A) (A) (A) (A) (A) (A) (A)
                 (A) (A) (A) (A) (A) (A) (A) (A) (A) (A) (A) (A)
                 (A) (A) (A) (A) (A) (A) (A) (A) (A) (A) (A) (A)
                 (A) (A) (A) (A) (A) (A) (A) (A) (A) (A) (A) (A)
                 (A) (A) (A) (A) (A) (A) (A) (A) (A) (A) (A) (A)
                 (A) (A) (A) (A) (A) (A) (A) (A) (A) (A) (A) (A)
                 (A) (A) (A) (A) (A) (A) (A) (A) (A) (A) (A) (A)
                 (A) (A) (A) (A) (A) (A) (A) (A) (A) (A) (A) (A)
                 (A) (A) (A) (A) (A) (A) (A) (A) (A) (A) (A) (A)
                 (A) (A) (A) (A) (A) (A) (A) (A) (A) (A) (A) (A)
                 (A) (A) (A) (A) (A) (A) (A) (A) (A) (A) (A) (A)
                 (A) (A) (A) (A) (A) (A) (A) (A) (A) (A) (A) (A)
                 (A) (A) (A) (A) (A) (A) (A) (A) (A) (A) (A) (A)
                 (A) (A) (A) (A) (A) (A) (A) (A) (A) (A) (A) (A)
                 (A) (A) (A) (A) (A) (A) (A) (A) (A) (A) (A) (A)
                 (A) (A) (A) (A) (A) (A) (A) (A) (A) (A) (A) (A)
                 (A) (A) (A) (A) (A) (A) (A) (A) (A) (A) (A) (A)
                 (A) (A) (A) (A) (A) (A) (A) (A) (A) (A) (A) (A)
                 (A) (A) (A) (A) (A) (A) (A) (A) (A) (A) (A) (A)
                 (A) (A) (A) (A) (A) (A) (A) (A) (A) (A) (A) (A)
                 (A) (A) (A) (A) (A) (A) (A) (A) (A) (A) (A) (A)
                 (A) (A) (A) (A) (A) (A) (A) (A) (A) (A) (A) (A)
                 (A) (A) (A) (A) (A) (A) (A) (A) (A) (A) (A) (A)
                 (A) (A) (A) (A) (A) (A) (A) (A) (A) (A) (A) (A)
                 (A) (A) (A) (A) (A) (A) (A) (A) (A) (A) (A) (A)
                 (A) (A) (A) (A) (A) (A) (A) (A) (A) (A) (A) (A)
                 (A) (A) (A) (A) (A) (A) (A) (A) (A) (A) (A) (A)
                 (A) (A) (A) (A) (A) (A) (A) (A) (A) (A) (A) (A)
                 (A) (A) (A) (A) (A) (A) (A) (A) (A) (A) (A) (A)
                 (A) (A) (A) (A) (A) (A) (A) (A) (A) (A) (A) (A)
                 (A) (A) (A) (A) (A) (A) (A) (A) (A) (A) (A) (A)
                 (A) (A) (A) (A) (A) (A) (A) (A) (A) (A) (A) (A)
                 (A) (A) (A) (A) (A) (A) (A) (A) (A) (A) (A) (A)
                 (A) (A) (A) (A) (A) (A) (A) (A) (A) (A) (A) (A)
                 (A) (A) (A) (A) (A) (A) (A) (A) (A) (A) (A) (A)
                 (A) (A) (A) (A) (A) (A) (A) (A) (A) (A) (A) (A)
                 (A) (A) (A) (A) (A) (A) (A) (A) (A) (A) (A) (A)
                 (A) (A) (A) (A) (A) (A) (A) (A) (A) (A) (A) (A)
                 (A) (A) (A) (A) (A) (A) (A) (A) (A) (A) (A) (A)
                 (A) (A) (A) (A) (A) (A) (A) (A) (A) (A) (A) (A)
                 (A) (A) (A) (A) (A) (A) (A) (A) (A) (A) (A) (A)
                 (A) (A) (A) (A) (A) (A) (A) (A) (A) (A) (A) (A)
                 (A) (A) (A) (A) (A) (A) (A) (A) (A) (A) (A) (A)
                 (A) (A) (A) (A) (A) (A) (A) (A) (A) (A) (A) (A)
                 (A) (A) (A) (A) (A) (A) (A) (A) (A) (A) (A) (A)
                 (A) (A) (A) (A) (A) (A) (A) (A) (A) (A) (A) (A)
                 (A) (A) (A) (A) (A) (A)
 Beta  Orbitals:
       Occupied  (A) (A) (A) (A) (A) (A) (A) (A) (A) (A) (A) (A)
                 (A) (A) (A) (A) (A) (A) (A) (A) (A) (A) (A) (A)
                 (A) (A) (A) (A) (A) (A) (A) (A) (A) (A) (A) (A)
                 (A) (A) (A) (A) (A) (A) (A) (A) (A) (A) (A) (A)
                 (A) (A) (A) (A) (A) (A) (A) (A) (A) (A) (A) (A)
                 (A) (A) (A) (A) (A) (A) (A) (A) (A) (A) (A) (A)
                 (A) (A) (A) (A) (A) (A) (A) (A) (A) (A) (A) (A)
                 (A) (A) (A) (A) (A) (A) (A) (A) (A) (A) (A) (A)
                 (A) (A) (A) (A) (A) (A) (A) (A) (A) (A) (A) (A)
                 (A) (A) (A) (A) (A) (A) (A) (A) (A) (A) (A) (A)
                 (A) (A) (A) (A) (A) (A) (A) (A) (A) (A) (A) (A)
                 (A) (A) (A) (A) (A) (A) (A) (A) (A) (A) (A) (A)
                 (A) (A) (A) (A) (A) (A) (A) (A) (A) (A) (A) (A)
                 (A) (A) (A) (A) (A) (A) (A) (A) (A) (A) (A) (A)
                 (A) (A) (A) (A) (A) (A) (A) (A) (A) (A) (A) (A)
                 (A) (A) (A) (A) (A) (A) (A) (A) (A) (A) (A) (A)
                 (A) (A) (A) (A) (A) (A) (A) (A) (A) (A) (A) (A)
                 (A) (A) (A) (A) (A) (A) (A) (A) (A) (A) (A) (A)
                 (A) (A) (A) (A) (A) (A) (A) (A) (A) (A) (A) (A)
                 (A)
       Virtual   (A) (A) (A) (A) (A) (A) (A) (A) (A) (A) (A) (A)
                 (A) (A) (A) (A) (A) (A) (A) (A) (A) (A) (A) (A)
                 (A) (A) (A) (A) (A) (A) (A) (A) (A) (A) (A) (A)
                 (A) (A) (A) (A) (A) (A) (A) (A) (A) (A) (A) (A)
                 (A) (A) (A) (A) (A) (A) (A) (A) (A) (A) (A) (A)
                 (A) (A) (A) (A) (A) (A) (A) (A) (A) (A) (A) (A)
                 (A) (A) (A) (A) (A) (A) (A) (A) (A) (A) (A) (A)
                 (A) (A) (A) (A) (A) (A) (A) (A) (A) (A) (A) (A)
                 (A) (A) (A) (A) (A) (A) (A) (A) (A) (A) (A) (A)
                 (A) (A) (A) (A) (A) (A) (A) (A) (A) (A) (A) (A)
                 (A) (A) (A) (A) (A) (A) (A) (A) (A) (A) (A) (A)
                 (A) (A) (A) (A) (A) (A) (A) (A) (A) (A) (A) (A)
                 (A) (A) (A) (A) (A) (A) (A) (A) (A) (A) (A) (A)
                 (A) (A) (A) (A) (A) (A) (A) (A) (A) (A) (A) (A)
                 (A) (A) (A) (A) (A) (A) (A) (A) (A) (A) (A) (A)
                 (A) (A) (A) (A) (A) (A) (A) (A) (A) (A) (A) (A)
                 (A) (A) (A) (A) (A) (A) (A) (A) (A) (A) (A) (A)
                 (A) (A) (A) (A) (A) (A) (A) (A) (A) (A) (A) (A)
                 (A) (A) (A) (A) (A) (A) (A) (A) (A) (A) (A) (A)
                 (A) (A) (A) (A) (A) (A) (A) (A) (A) (A) (A) (A)
                 (A) (A) (A) (A) (A) (A) (A) (A) (A) (A) (A) (A)
                 (A) (A) (A) (A) (A) (A) (A) (A) (A) (A) (A) (A)
                 (A) (A) (A) (A) (A) (A) (A) (A) (A) (A) (A) (A)
                 (A) (A) (A) (A) (A) (A) (A) (A) (A) (A) (A) (A)
                 (A) (A) (A) (A) (A) (A) (A) (A) (A) (A) (A) (A)
                 (A) (A) (A) (A) (A) (A) (A) (A) (A) (A) (A) (A)
                 (A) (A) (A) (A) (A) (A) (A) (A) (A) (A) (A) (A)
                 (A) (A) (A) (A) (A) (A) (A) (A) (A) (A) (A) (A)
                 (A) (A) (A) (A) (A) (A) (A) (A) (A) (A) (A) (A)
                 (A) (A) (A) (A) (A) (A) (A) (A) (A) (A) (A) (A)
                 (A) (A) (A) (A) (A) (A) (A) (A) (A) (A) (A) (A)
                 (A) (A) (A) (A) (A) (A) (A) (A) (A) (A) (A) (A)
                 (A) (A) (A) (A) (A) (A) (A) (A) (A) (A) (A) (A)
                 (A) (A) (A) (A) (A) (A) (A) (A) (A) (A) (A) (A)
                 (A) (A) (A) (A) (A) (A) (A) (A) (A) (A) (A) (A)
                 (A) (A) (A) (A) (A) (A) (A) (A) (A) (A) (A) (A)
                 (A) (A) (A) (A) (A) (A) (A) (A) (A) (A) (A) (A)
                 (A) (A) (A) (A) (A) (A) (A) (A) (A) (A) (A) (A)
                 (A) (A) (A) (A) (A) (A) (A) (A) (A) (A) (A) (A)
                 (A) (A) (A) (A) (A) (A) (A) (A) (A) (A) (A) (A)
                 (A) (A) (A) (A) (A) (A) (A) (A) (A) (A) (A) (A)
                 (A) (A) (A) (A) (A) (A) (A) (A) (A) (A) (A) (A)
                 (A) (A) (A) (A) (A) (A) (A) (A) (A) (A) (A) (A)
                 (A) (A) (A) (A) (A) (A) (A) (A) (A) (A) (A) (A)
                 (A) (A) (A) (A) (A) (A) (A) (A) (A) (A) (A) (A)
                 (A) (A) (A) (A) (A) (A) (A) (A) (A) (A) (A) (A)
                 (A) (A) (A) (A) (A) (A) (A) (A) (A) (A) (A) (A)
                 (A) (A) (A) (A) (A) (A) (A) (A) (A) (A) (A) (A)
                 (A) (A) (A) (A) (A) (A) (A) (A) (A) (A) (A) (A)
                 (A) (A) (A) (A) (A) (A) (A) (A) (A) (A) (A) (A)
                 (A) (A) (A) (A) (A) (A) (A) (A) (A) (A) (A) (A)
                 (A) (A) (A) (A) (A) (A) (A) (A) (A) (A) (A) (A)
                 (A) (A) (A) (A) (A) (A) (A) (A) (A) (A) (A) (A)
                 (A) (A) (A) (A) (A) (A) (A) (A) (A) (A) (A) (A)
                 (A) (A) (A) (A) (A) (A) (A) (A) (A) (A) (A) (A)
                 (A) (A) (A) (A) (A) (A) (A) (A) (A) (A) (A) (A)
                 (A) (A) (A) (A) (A) (A) (A) (A) (A) (A) (A) (A)
                 (A) (A) (A) (A) (A) (A) (A) (A) (A) (A) (A) (A)
                 (A) (A) (A) (A) (A) (A) (A) (A) (A) (A) (A) (A)
                 (A) (A) (A) (A) (A) (A) (A) (A) (A) (A) (A) (A)
                 (A) (A) (A) (A) (A) (A) (A) (A) (A) (A) (A) (A)
                 (A) (A) (A) (A) (A) (A) (A) (A) (A) (A) (A) (A)
                 (A) (A) (A) (A) (A) (A) (A) (A) (A) (A) (A) (A)
                 (A) (A) (A) (A) (A) (A) (A) (A) (A) (A) (A) (A)
                 (A) (A) (A) (A) (A) (A) (A) (A) (A) (A) (A) (A)
                 (A) (A) (A) (A) (A) (A) (A) (A) (A) (A) (A) (A)
                 (A) (A) (A) (A) (A) (A) (A) (A) (A) (A) (A) (A)
                 (A) (A) (A) (A) (A) (A) (A) (A) (A) (A) (A) (A)
                 (A) (A) (A) (A) (A) (A) (A) (A) (A) (A) (A) (A)
                 (A) (A) (A) (A) (A) (A) (A) (A) (A) (A) (A) (A)
                 (A) (A) (A) (A) (A) (A) (A) (A) (A) (A) (A) (A)
                 (A) (A) (A) (A) (A) (A) (A) (A) (A) (A) (A) (A)
                 (A) (A) (A) (A) (A) (A) (A) (A) (A) (A) (A) (A)
                 (A) (A) (A) (A) (A) (A) (A) (A) (A) (A) (A) (A)
                 (A) (A) (A) (A) (A) (A) (A) (A) (A) (A) (A) (A)
                 (A) (A) (A) (A) (A) (A) (A) (A) (A) (A) (A) (A)
                 (A) (A) (A) (A) (A) (A) (A) (A) (A) (A) (A) (A)
                 (A) (A) (A) (A) (A) (A) (A) (A) (A) (A) (A) (A)
                 (A) (A) (A) (A) (A) (A) (A) (A) (A) (A) (A) (A)
                 (A) (A) (A) (A) (A) (A) (A) (A) (A) (A) (A) (A)
                 (A) (A) (A) (A) (A) (A) (A) (A) (A) (A) (A) (A)
                 (A) (A) (A) (A) (A) (A) (A) (A) (A) (A) (A) (A)
                 (A) (A) (A) (A) (A) (A) (A) (A) (A) (A) (A) (A)
                 (A) (A) (A) (A) (A) (A) (A) (A) (A) (A) (A) (A)
                 (A) (A) (A) (A) (A) (A) (A) (A) (A) (A) (A) (A)
                 (A) (A) (A) (A) (A) (A) (A) (A) (A) (A) (A) (A)
                 (A) (A) (A) (A) (A) (A) (A) (A) (A) (A) (A) (A)
                 (A) (A) (A) (A) (A) (A) (A) (A) (A) (A) (A) (A)
                 (A) (A) (A) (A) (A) (A) (A) (A) (A) (A) (A) (A)
                 (A) (A) (A) (A) (A) (A) (A) (A) (A) (A) (A) (A)
                 (A) (A) (A) (A) (A) (A) (A) (A) (A) (A) (A) (A)
                 (A) (A) (A) (A) (A) (A) (A) (A) (A) (A) (A) (A)
                 (A) (A) (A) (A) (A) (A) (A) (A) (A) (A) (A) (A)
                 (A) (A) (A) (A) (A) (A) (A) (A) (A) (A) (A) (A)
                 (A) (A) (A) (A) (A) (A) (A) (A) (A) (A) (A) (A)
                 (A) (A) (A) (A) (A) (A) (A) (A) (A) (A) (A) (A)
                 (A) (A) (A) (A) (A) (A) (A) (A) (A) (A) (A) (A)
                 (A) (A) (A) (A) (A) (A) (A) (A) (A) (A) (A) (A)
                 (A) (A) (A) (A) (A) (A) (A) (A) (A) (A) (A) (A)
                 (A) (A) (A) (A) (A) (A) (A) (A) (A) (A) (A) (A)
[...]
  Beta virt. eigenvalues --    4.49159   4.49233   4.49369   4.49548   4.49651
  Beta virt. eigenvalues --    4.50202   4.50350   4.50528   4.50662   4.51213
  Beta virt. eigenvalues --    4.51623   4.51888   4.52247   4.53000   4.53115
  Beta virt. eigenvalues --    4.53372   4.53824   4.53915   4.54111   4.54538
  Beta virt. eigenvalues --    4.55066   4.55778   4.55990   4.56430   4.56649
  Beta virt. eigenvalues --    4.56888   4.57198   4.57875   4.58250   4.58440
  Beta virt. eigenvalues --    4.58843   4.59515   4.59616   4.60447   4.60622
  Beta virt. eigenvalues --    4.61161   4.61419   4.61896   4.62403   4.63010
  Beta virt. eigenvalues --    4.64009   4.64261   4.64834   4.65671   4.65692
  Beta virt. eigenvalues --    4.66074   4.66629   4.67497   4.67764   4.68126
  Beta virt. eigenvalues --    4.68465   4.68749   4.68916   4.68955   4.69141
  Beta virt. eigenvalues --    4.69403   4.69590   4.69723   4.69847   4.70400
  Beta virt. eigenvalues --    4.70499   4.70748   4.71096   4.71296   4.71554
  Beta virt. eigenvalues --    4.71648   4.71791   4.71955   4.72010   4.72143
  Beta virt. eigenvalues --    4.72319   4.72701   4.72942   4.73119   4.73453
  Beta virt. eigenvalues --    4.73520   4.73867   4.74121   4.74659   4.75280
  Beta virt. eigenvalues --    4.75601   4.75936   4.76303   4.76658   4.77008
  Beta virt. eigenvalues --    4.77378   4.78080   4.78875   4.80030   4.80721
  Beta virt. eigenvalues --    4.81861   4.82976   4.83913   4.84318   4.84669
  Beta virt. eigenvalues --    4.85486   4.86131   4.86320   4.86563   4.86987
  Beta virt. eigenvalues --    4.87679   4.88028   4.88742   4.89181   4.89482
  Beta virt. eigenvalues --    4.89657   4.90115   4.90142   4.91110   4.91150
  Beta virt. eigenvalues --    4.91336   4.91926   4.92582   4.92975   4.93115
  Beta virt. eigenvalues --    4.93310   4.93590   4.93790   4.93942   4.94007
  Beta virt. eigenvalues --    4.94157   4.94499   4.94676   4.94951   4.95421
  Beta virt. eigenvalues --    4.95599   4.95757   4.96198   4.96262   4.96290
  Beta virt. eigenvalues --    4.96429   4.96641   4.96794   4.96868   4.97243
  Beta virt. eigenvalues --    4.97333   4.97503   4.97621   4.97735   4.98230
  Beta virt. eigenvalues --    4.98640   4.98891   4.98971   4.99248   4.99800
  Beta virt. eigenvalues --    5.00775   5.00945   5.01405   5.02173   5.03441
  Beta virt. eigenvalues --    5.04583   5.05523   5.05645   5.06015   5.06354
  Beta virt. eigenvalues --    5.06572   5.06904   5.07028   5.07790   5.07832
  Beta virt. eigenvalues --    5.08542   5.08883   5.09553   5.09655   5.10106
  Beta virt. eigenvalues --    5.10957   5.11220   5.11282   5.11505   5.11991
  Beta virt. eigenvalues --    5.12049   5.12344   5.12887   5.13119   5.13690
  Beta virt. eigenvalues --    5.13814   5.14615   5.15231   5.15352   5.15678
  Beta virt. eigenvalues --    5.15719   5.15846   5.16262   5.16483   5.16739
  Beta virt. eigenvalues --    5.16806   5.17198   5.17930   5.17974   5.18521
  Beta virt. eigenvalues --    5.19413   5.19855   5.19928   5.20678   5.20788
  Beta virt. eigenvalues --    5.21313   5.21321   5.21348   5.21376   5.21612
  Beta virt. eigenvalues --    5.22079   5.22517   5.23425   5.23719   5.24353
  Beta virt. eigenvalues --    5.25399   5.26022   5.26669   5.27206   5.27681
  Beta virt. eigenvalues --    5.28170   5.28608   5.29160   5.30009   5.30122
  Beta virt. eigenvalues --    5.30333   5.30766   5.30954   5.31335   5.31904
  Beta virt. eigenvalues --    5.31993   5.32137   5.32721   5.32901   5.33734
  Beta virt. eigenvalues --    5.34007   5.34112   5.34591   5.35518   5.35817
  Beta virt. eigenvalues --    5.36278   5.37127   5.37531   5.38093   5.38268
  Beta virt. eigenvalues --    5.38961   5.39266   5.39799   5.40581   5.40834
  Beta virt. eigenvalues --    5.41093   5.41154   5.41250   5.41390   5.41449
  Beta virt. eigenvalues --    5.41795   5.42441   5.43179   5.43679   5.44366
  Beta virt. eigenvalues --    5.45705   5.46731   5.47244   5.47734   5.48657
  Beta virt. eigenvalues --    5.48811   5.49195   5.49278   5.49489   5.49610
  Beta virt. eigenvalues --    5.49800   5.50438   5.50766   5.51407   5.51904
  Beta virt. eigenvalues --    5.52342   5.53183   5.53341   5.53371   5.53484
  Beta virt. eigenvalues --    5.53516   5.53580   5.54197   5.54684   5.54818
  Beta virt. eigenvalues --    5.55538   5.55703   5.56343   5.56862   5.57816
  Beta virt. eigenvalues --    5.57927   5.58904   5.59573   5.59899   5.60255
  Beta virt. eigenvalues --    5.60764   5.60999   5.61721   5.62009   5.62744
  Beta virt. eigenvalues --    5.63442   5.63862   5.64338   5.65096   5.65509
  Beta virt. eigenvalues --    5.65706   5.66518   5.67123   5.67670   5.68182
  Beta virt. eigenvalues --    5.69629   5.70195   5.70859   5.71636   5.72189
  Beta virt. eigenvalues --    5.72791   5.73592   5.74550   5.74959   5.76721
  Beta virt. eigenvalues --    5.77318   5.78224   5.78324   5.79195   5.79397
  Beta virt. eigenvalues --    5.80310   5.82522   5.82774   5.83749   5.84131
  Beta virt. eigenvalues --    5.84217   5.84304   5.84326   5.84667   5.85115
  Beta virt. eigenvalues --    5.87485   5.89204   5.91092   5.93102   5.96595
  Beta virt. eigenvalues --    5.98968   6.00981   6.01513   6.01753   6.01815
  Beta virt. eigenvalues --    6.01846   6.01869   6.01921   6.01944   6.01974
  Beta virt. eigenvalues --    6.02062   6.02324   6.02678   6.03608   6.06147
  Beta virt. eigenvalues --    6.15472   6.15918   6.16383   6.16663   6.17450
  Beta virt. eigenvalues --    6.18664   6.19738   6.20796   6.21047   6.25326
  Beta virt. eigenvalues --    6.25947   6.26547   6.27199   6.27425   6.28224
  Beta virt. eigenvalues --    6.32355   6.35929   6.37597   6.41576   6.41589
  Beta virt. eigenvalues --    6.41669   6.41993   6.42229   6.42795   6.47968
  Beta virt. eigenvalues --    6.50012   6.50992   6.68078   6.69550   6.69568
  Beta virt. eigenvalues --    6.69717   6.69752   6.69781   6.70453   6.70517
  Beta virt. eigenvalues --    6.71084   6.71466   6.71628   6.71840   6.72460
  Beta virt. eigenvalues --    6.75102   6.82545   6.82787   6.82848   6.82882
  Beta virt. eigenvalues --    6.83002   6.83592   6.83867   6.84522   6.84726
  Beta virt. eigenvalues --    6.87604   6.89060   6.91131   6.91332   6.91405
  Beta virt. eigenvalues --    6.91442   6.91489   6.92124   6.94466   7.08990
  Beta virt. eigenvalues --    7.18469   7.22778   7.27230   7.27287   7.27435
  Beta virt. eigenvalues --    7.27460   7.27502   7.27632   7.43876   7.44076
  Beta virt. eigenvalues --    7.44246   7.44315   7.45628   7.45858   7.46158
  Beta virt. eigenvalues --    7.47835   7.62967   7.66175  22.80553  22.86725
  Beta virt. eigenvalues --   22.88786  22.92030  22.93110  22.94647  22.98291
  Beta virt. eigenvalues --   23.01789  23.07530  23.10806  23.11385  23.13768
  Beta virt. eigenvalues --   23.15344  23.16515  23.17767  23.19447  23.20661
  Beta virt. eigenvalues --   23.22128  23.22762  23.23235  23.25023  23.26175
  Beta virt. eigenvalues --   23.26448  23.27987  23.29057  23.29315  23.30025
  Beta virt. eigenvalues --   23.30928  23.31267  23.34053  23.36410  23.38209
  Beta virt. eigenvalues --   23.39232  23.40405  23.41038  23.41634  23.43692
  Beta virt. eigenvalues --   23.45811  23.49312  23.56406  23.57758  23.59911
  Beta virt. eigenvalues --   23.64527  23.64666  23.64811  23.65312  23.66433
  Beta virt. eigenvalues --   23.67202  24.02016  24.02814  24.06180  24.07417
  Beta virt. eigenvalues --   24.14937  24.20676  24.25718  32.54022  33.37028
  Beta virt. eigenvalues --   44.23456  44.31074  44.49266  44.49474  44.49589
  Beta virt. eigenvalues --   44.50104  44.50317  44.51378  44.76513
          Condensed to atoms (all electrons):
          Atomic-Atomic Spin Densities.
 Mulliken charges and spin densities:
               1          2
     1  C   -0.247979   0.000013
     2  O   -0.304739   0.000030
     3  C    0.219449  -0.000241
     4  C   -0.136099   0.000198
     5  C   -0.207802  -0.001313
     6  C   -0.174359   0.001594
     7  C   -0.119609  -0.004043
     8  C   -0.339401   0.013459
     9  C    0.158537   0.033293
    10  C   -0.034754   0.051467
    11  C   -0.102812   0.037596
    12  C   -0.109950   0.071295
    13  N    0.418288   0.152872
    14  O   -0.527925   0.177919
    15  O   -0.526156   0.185244
    16  C   -0.064829   0.005478
    17  C   -0.054897   0.048155
    18  C    0.154131   0.012425
    19  C   -0.287858   0.010829
    20  C   -0.124449  -0.004140
    21  C   -0.180574   0.001444
    22  C    0.216920  -0.000829
    23  O   -0.305927  -0.000046
    24  C   -0.248171   0.000012
    25  C   -0.143897   0.000767
    26  C   -0.203549  -0.001023
    27  C    0.301648   0.003262
    28  O   -0.229349   0.024999
    29  C   -0.102223  -0.001300
    30  C   -0.150767   0.000751
    31  C   -0.165837  -0.000412
    32  C    0.218463   0.000560
    33  O   -0.300565   0.000099
    34  C   -0.240785  -0.000008
    35  C   -0.172049  -0.000412
    36  C   -0.205661   0.000851
    37  C    0.118426   0.053089
    38  C    0.181061   0.057347
    39  N   -0.043150   0.063635
    40  C    0.015928  -0.025953
    41  C    0.001993   0.002384
    42  C   -0.142602  -0.003219
    43  C   -0.174429  -0.000124
    44  C    0.233195   0.000302
    45  O   -0.304359  -0.000011
    46  C   -0.225177   0.000000
    47  C   -0.193577  -0.000090
    48  C   -0.190629   0.000282
    49  C    0.111979   0.046631
    50  C   -0.205550   0.000212
    51  C   -0.190665  -0.000879
    52  C   -0.149241  -0.000170
    53  C    0.217934   0.000167
    54  O   -0.306977   0.000026
    55  C   -0.247933  -0.000009
    56  C   -0.180240  -0.000216
    57  C   -0.136442   0.000358
    58  C    0.079189  -0.004482
    59  C   -0.009143   0.015989
    60  C    0.037882  -0.011996
    61  C   -0.158972   0.004596
    62  C    0.210170  -0.004022
    63  O   -0.297290  -0.000304
    64  C   -0.248638   0.000065
    65  C   -0.146317   0.009119
    66  C   -0.175614  -0.005627
    67  H    0.148874  -0.000001
    68  H    0.147289  -0.000006
    69  H    0.147267  -0.000002
    70  H    0.160685   0.000007
    71  H    0.177060  -0.001272
    72  H    0.157571  -0.000029
    73  H    0.160346  -0.000248
    74  H    0.203259  -0.008745
    75  H    0.200754  -0.005521
    76  H    0.159599  -0.000072
    77  H    0.157034   0.000000
    78  H    0.146893  -0.000006
    79  H    0.148771  -0.000000
    80  H    0.147150  -0.000006
    81  H    0.160174  -0.000047
    82  H    0.175304  -0.001382
    83  H    0.154837  -0.000153
    84  H    0.160984   0.000006
    85  H    0.151249  -0.000001
    86  H    0.138340   0.000006
    87  H    0.150826   0.000009
    88  H    0.159584   0.000009
    89  H    0.178111  -0.000040
    90  H    0.158563   0.000280
    91  H    0.159966  -0.000033
    92  H    0.119191  -0.000001
    93  H    0.153184  -0.000000
    94  H    0.151723  -0.000000
    95  H    0.154031  -0.000009
    96  H    0.173132   0.000064
    97  H    0.175602  -0.000204
    98  H    0.159475   0.000040
    99  H    0.148514   0.000001
   100  H    0.146099   0.000001
   101  H    0.146798   0.000005
   102  H    0.156041   0.000060
   103  H    0.155252  -0.000144
   104  H    0.187873  -0.000196
   105  H    0.147756  -0.000029
   106  H    0.153478   0.000003
   107  H    0.149006  -0.000040
   108  H    0.162674  -0.000386
   109  H    0.194404   0.000136
 Sum of Mulliken charges =  -0.00000   1.00000
 Mulliken charges and spin densities with hydrogens summed into heavy atoms:
               1          2
     1  C    0.195452   0.000005
     2  O   -0.304739   0.000030
     3  C    0.219449  -0.000241
     4  C    0.024586   0.000205
     5  C   -0.030743  -0.002585
     6  C   -0.016787   0.001565
     7  C    0.040737  -0.004291
     8  C   -0.339401   0.013459
     9  C    0.158537   0.033293
    10  C   -0.034754   0.051467
    11  C    0.100446   0.028851
    12  C   -0.109950   0.071295
    13  N    0.418288   0.152872
    14  O   -0.527925   0.177919
    15  O   -0.526156   0.185244
    16  C    0.135925  -0.000043
    17  C   -0.054897   0.048155
    18  C    0.154131   0.012425
    19  C   -0.287858   0.010829
    20  C    0.035150  -0.004212
    21  C   -0.023540   0.001444
    22  C    0.216920  -0.000829
    23  O   -0.305927  -0.000046
    24  C    0.194643  -0.000001
    25  C    0.016277   0.000719
    26  C   -0.028245  -0.002405
    27  C    0.301648   0.003262
    28  O   -0.229349   0.024999
    29  C   -0.102223  -0.001300
    30  C    0.004070   0.000598
    31  C   -0.004853  -0.000406
    32  C    0.218463   0.000560
    33  O   -0.300565   0.000099
    34  C    0.199631   0.000006
    35  C   -0.012464  -0.000402
    36  C   -0.027550   0.000811
    37  C    0.118426   0.053089
    38  C    0.181061   0.057347
    39  N   -0.043150   0.063635
    40  C    0.015928  -0.025953
    41  C    0.001993   0.002384
    42  C    0.015961  -0.002939
    43  C   -0.014464  -0.000157
    44  C    0.233195   0.000302
    45  O   -0.304359  -0.000011
    46  C    0.198921  -0.000001
    47  C   -0.039546  -0.000099
    48  C   -0.017497   0.000346
    49  C    0.111979   0.046631
    50  C   -0.205550   0.000212
    51  C   -0.015062  -0.001082
    52  C    0.010234  -0.000130
    53  C    0.217934   0.000167
    54  O   -0.306977   0.000026
    55  C    0.193478  -0.000002
    56  C   -0.024199  -0.000156
    57  C    0.018811   0.000214
    58  C    0.079189  -0.004482
    59  C   -0.009143   0.015989
    60  C    0.037882  -0.011996
    61  C    0.028901   0.004400
    62  C    0.210170  -0.004022
    63  O   -0.297290  -0.000304
    64  C    0.201601  -0.000002
    65  C    0.016357   0.008733
    66  C    0.018789  -0.005491
 Electronic spatial extent (au):  <R**2>=          56997.9820
 Charge=              0.0000 electrons
 Dipole moment (field-independent basis, Debye):
    X=             -3.9797    Y=             25.2086    Z=             -3.9850  Tot=             25.8301
 Quadrupole moment (field-independent basis, Debye-Ang):
   XX=           -275.9907   YY=           -462.1942   ZZ=           -364.5609
   XY=             41.1021   XZ=            -31.4590   YZ=             39.7470
 Traceless Quadrupole moment (field-independent basis, Debye-Ang):
   XX=             91.5912   YY=            -94.6122   ZZ=              3.0210
   XY=             41.1021   XZ=            -31.4590   YZ=             39.7470
 Octapole moment (field-independent basis, Debye-Ang**2):
  XXX=            178.9919  YYY=           1238.8659  ZZZ=             13.3848  XYY=           -242.1886
  XXY=            183.6368  XXZ=            -32.5236  XZZ=            -49.5780  YZZ=             87.0578
  YYZ=           -114.3009  XYZ=            135.2779
 Hexadecapole moment (field-independent basis, Debye-Ang**3):
 XXXX=         -33306.6422 YYYY=         -35293.3140 ZZZZ=          -4734.5967 XXXY=            838.8955
 XXXZ=          -1777.1008 YYYX=           1889.5538 YYYZ=           2248.3101 ZZZX=           -156.6205
 ZZZY=            108.0106 XXYY=          -9848.5359 XXZZ=          -6907.0002 YYZZ=          -5618.0572
 XXYZ=            201.0294 YYXZ=           -876.6686 ZZXY=           -293.9908
 N-N= 9.725107001683D+03 E-N=-2.622084256291D+04  KE= 2.892126524268D+03
 Leave Link  601 at Sat Nov  8 08:23:04 2025, MaxMem= 30870077440 cpu:             189.5 elap:               3.6
 (Enter /public/software/gauss/g16/l9999.exe)
 1\1\GINC-CU303\SP\UM062X\def2TZVPP\C55H43N2O9(2)\BAIDING\08-Nov-2025\0
 \\#p M062X/DEF2TZVPP scrf=(solvent=water) em=GD3\\Energy calculation f
 or M100480149_reduced\\0,2\C,0,7.184735,-5.949504,-1.45973\O,0,6.13893
 9,-6.148756,-0.503221\C,0,5.153822,-5.200878,-0.421162\C,0,4.152226,-5
 .441418,0.532188\C,0,3.108802,-4.538529,0.690178\C,0,5.095233,-4.04834
 8,-1.213421\C,0,4.042193,-3.148196,-1.039224\C,0,3.038841,-3.366938,-0
 .086661\C,0,1.915733,-2.395429,0.055881\C,0,0.572635,-2.854612,-0.2381
 87\C,0,0.257613,-4.138653,-0.670034\C,0,-1.090732,-4.533778,-0.791025\
 N,0,-1.386869,-5.830142,-1.224038\O,0,-0.435011,-6.628986,-1.527366\O,
 0,-2.606762,-6.204092,-1.314329\C,0,-2.156166,-3.653702,-0.470427\C,0,
 -1.885203,-2.358091,-0.08008\C,0,-2.910002,-1.363058,0.229702\C,0,-4.3
 49333,-1.756323,0.222976\C,0,-5.081954,-1.796518,1.414979\C,0,-6.42786
 3,-2.168791,1.43239\C,0,-7.062457,-2.512515,0.233229\O,0,-8.375591,-2.
 890296,0.132262\C,0,-9.15419,-2.936679,1.332192\C,0,-6.340877,-2.48310
 6,-0.969993\C,0,-5.001879,-2.112676,-0.971065\C,0,-2.530445,-0.10047,0
 .567626\O,0,-1.180653,0.241716,0.661512\C,0,-3.359464,1.077518,0.87678
 6\C,0,-3.004089,1.927327,1.943318\C,0,-3.74626,3.063946,2.225162\C,0,-
 4.860997,3.391804,1.436603\O,0,-5.525151,4.531845,1.790331\C,0,-6.6609
 13,4.922701,1.009776\C,0,-5.22093,2.564934,0.363931\C,0,-4.470656,1.42
 1178,0.093799\C,0,-0.508983,-1.94394,0.017064\C,0,-0.224734,-0.63514,0
 .328447\N,0,1.05872,-0.142205,0.322474\C,0,1.335218,1.236,0.045451\C,0
 ,0.302507,2.001919,-0.705097\C,0,-0.126518,1.551196,-1.966783\C,0,-1.0
 81122,2.255699,-2.687353\C,0,-1.638106,3.430223,-2.157783\O,0,-2.58139
 1,4.045351,-2.935478\C,0,-3.227551,5.211093,-2.412692\C,0,-1.215575,3.
 897114,-0.907194\C,0,-0.253028,3.180474,-0.195193\C,0,2.563037,1.73799
 6,0.348326\C,0,2.935823,3.134691,-0.038972\C,0,2.916499,4.183658,0.896
 407\C,0,3.281649,5.474445,0.531719\C,0,3.678944,5.747945,-0.785542\O,0
 ,4.01437,7.050997,-1.049355\C,0,4.413999,7.384071,-2.382245\C,0,3.7109
 64,4.715098,-1.729373\C,0,3.343427,3.422674,-1.346156\C,0,2.127956,-1.
 080703,0.434567\C,0,3.342749,-0.515618,1.031179\C,0,3.554593,0.885662,
 0.999603\C,0,4.718921,1.438504,1.566609\C,0,5.644982,0.622678,2.209767
 \O,0,6.79332,1.068502,2.795953\C,0,7.076825,2.472116,2.749365\C,0,5.41
 1241,-0.761305,2.299263\C,0,4.285989,-1.311707,1.71783\H,0,7.849883,-6
 .807488,-1.355484\H,0,6.789583,-5.917475,-2.48077\H,0,7.742484,-5.0295
 22,-1.253833\H,0,4.209174,-6.339419,1.139049\H,0,2.344878,-4.735992,1.
 435768\H,0,5.850764,-3.845943,-1.962532\H,0,4.004012,-2.257573,-1.6591
 32\H,0,1.031462,-4.858439,-0.889268\H,0,-3.17171,-4.010168,-0.556537\H
 ,0,-4.5965,-1.532803,2.349651\H,0,-6.962416,-2.189653,2.374068\H,0,-9.
 215971,-1.950606,1.805115\H,0,-10.15158,-3.255362,1.026948\H,0,-8.7435
 63,-3.659428,2.045521\H,0,-6.846272,-2.750507,-1.892481\H,0,-4.457383,
 -2.089768,-1.910058\H,0,-2.144243,1.687519,2.559797\H,0,-3.479471,3.71
 2472,3.05319\H,0,-7.026911,5.845115,1.46165\H,0,-6.37969,5.112648,-0.0
 3157\H,0,-7.4477,4.161781,1.045185\H,0,-6.069081,2.802978,-0.2657\H,0,
 -4.750269,0.800238,-0.749403\H,0,0.291946,0.642407,-2.388964\H,0,-1.41
 0052,1.91088,-3.662341\H,0,-3.760535,4.983252,-1.482829\H,0,-2.510365,
 6.019975,-2.237257\H,0,-3.942644,5.520894,-3.175593\H,0,-1.631881,4.79
 9441,-0.477061\H,0,0.054125,3.539409,0.780896\H,0,2.605863,3.987484,1.
 918245\H,0,3.260025,6.285053,1.253194\H,0,4.627817,8.453509,-2.369991\
 H,0,5.315878,6.836452,-2.6768\H,0,3.612382,7.181737,-3.100888\H,0,4.01
 601,4.900146,-2.752052\H,0,3.371133,2.627639,-2.085386\H,0,4.873302,2.
 506615,1.508034\H,0,6.299639,3.0499,3.260351\H,0,8.026558,2.599299,3.2
 69617\H,0,7.176038,2.821421,1.71638\H,0,6.119886,-1.38355,2.835462\H,0
 ,4.123089,-2.374643,1.820745\\Version=ES64L-G16RevA.03\State=2-A\HF=-2
 908.0902074\S2=0.766417\S2-1=0.\S2A=0.750109\RMSD=3.615e-09\Dipole=1.5
 657507,9.9178237,1.567817\Quadrupole=68.0958087,-70.3418657,2.246057,-
 30.5584259,-23.3889929,-29.5509387\PG=C01 [X(C55H43N2O9)]\\@


 IF YOU DON'T HAVE THE LAW - ARGUE THE FACTS.
 IF YOU DON'T HAVE THE FACTS - ARGUE THE LAW.
 IF YOU DON'T HAVE EITHER - POUND THE TABLE.
 Job cpu time:       3 days 18 hours 14 minutes 26.6 seconds.
 Elapsed time:       0 days  1 hours 25 minutes 29.8 seconds.
 File lengths (MBytes):  RWF=   7381 Int=      0 D2E=      0 Chk=    486 Scr=      1
 Normal termination of Gaussian 16 at Sat Nov  8 08:23:06 2025.
