 Entering Gaussian System, Link 0=g16
 Input=M100034873_sp.gjf
 Output=M100034873_sp.log
 Initial command:
 /public/software/gauss/g16/l1.exe "/public/home/baiding/1101_v2_sp/tmp_M100034873_sp_1568608/Gau-3225.inp" -scrdir="/public/home/baiding/1101_v2_sp/tmp_M100034873_sp_1568608/"
 Entering Link 1 = /public/software/gauss/g16/l1.exe PID=      3226.
  
 Copyright (c) 1988,1990,1992,1993,1995,1998,2003,2009,2016,
            Gaussian, Inc.  All Rights Reserved.
  
 This is part of the Gaussian(R) 16 program.  It is based on
 the Gaussian(R) 09 system (copyright 2009, Gaussian, Inc.),
 the Gaussian(R) 03 system (copyright 2003, Gaussian, Inc.),
 the Gaussian(R) 98 system (copyright 1998, Gaussian, Inc.),
 the Gaussian(R) 94 system (copyright 1995, Gaussian, Inc.),
 the Gaussian 92(TM) system (copyright 1992, Gaussian, Inc.),
 the Gaussian 90(TM) system (copyright 1990, Gaussian, Inc.),
 the Gaussian 88(TM) system (copyright 1988, Gaussian, Inc.),
 the Gaussian 86(TM) system (copyright 1986, Carnegie Mellon
 University), and the Gaussian 82(TM) system (copyright 1983,
 Carnegie Mellon University). Gaussian is a federally registered
 trademark of Gaussian, Inc.
  
 This software contains proprietary and confidential information,
 including trade secrets, belonging to Gaussian, Inc.
  
 This software is provided under written license and may be
 used, copied, transmitted, or stored only in accord with that
 written license.
  
 The following legend is applicable only to US Government
 contracts under FAR:
  
                    RESTRICTED RIGHTS LEGEND
  
 Use, reproduction and disclosure by the US Government is
 subject to restrictions as set forth in subparagraphs (a)
 and (c) of the Commercial Computer Software - Restricted
 Rights clause in FAR 52.227-19.
  
 Gaussian, Inc.
 340 Quinnipiac St., Bldg. 40, Wallingford CT 06492
  
  
 ---------------------------------------------------------------
 Warning -- This program may not be used in any manner that
 competes with the business of Gaussian, Inc. or will provide
 assistance to any competitor of Gaussian, Inc.  The licensee
 of this program is prohibited from giving any competitor of
 Gaussian, Inc. access to this program.  By using this program,
 the user acknowledges that Gaussian, Inc. is engaged in the
 business of creating and licensing software in the field of
 computational chemistry and represents and warrants to the
 licensee that it is not a competitor of Gaussian, Inc. and that
 it will not use this program in any manner prohibited above.
 ---------------------------------------------------------------
  

 Cite this work as:
 Gaussian 16, Revision A.03,
 M. J. Frisch, G. W. Trucks, H. B. Schlegel, G. E. Scuseria, 
 M. A. Robb, J. R. Cheeseman, G. Scalmani, V. Barone, 
 G. A. Petersson, H. Nakatsuji, X. Li, M. Caricato, A. V. Marenich, 
 J. Bloino, B. G. Janesko, R. Gomperts, B. Mennucci, H. P. Hratchian, 
 J. V. Ortiz, A. F. Izmaylov, J. L. Sonnenberg, D. Williams-Young, 
 F. Ding, F. Lipparini, F. Egidi, J. Goings, B. Peng, A. Petrone, 
 T. Henderson, D. Ranasinghe, V. G. Zakrzewski, J. Gao, N. Rega, 
 G. Zheng, W. Liang, M. Hada, M. Ehara, K. Toyota, R. Fukuda, 
 J. Hasegawa, M. Ishida, T. Nakajima, Y. Honda, O. Kitao, H. Nakai, 
 T. Vreven, K. Throssell, J. A. Montgomery, Jr., J. E. Peralta, 
 F. Ogliaro, M. J. Bearpark, J. J. Heyd, E. N. Brothers, K. N. Kudin, 
 V. N. Staroverov, T. A. Keith, R. Kobayashi, J. Normand, 
 K. Raghavachari, A. P. Rendell, J. C. Burant, S. S. Iyengar, 
 J. Tomasi, M. Cossi, J. M. Millam, M. Klene, C. Adamo, R. Cammi, 
 J. W. Ochterski, R. L. Martin, K. Morokuma, O. Farkas, 
 J. B. Foresman, and D. J. Fox, Gaussian, Inc., Wallingford CT, 2016.
 
 ******************************************
 Gaussian 16:  ES64L-G16RevA.03 25-Dec-2016
                 7-Nov-2025 
 ******************************************
 %nprocshared=64
 Will use up to   64 processors via shared memory.
 %mem=230GB
 %chk=M100034873_sp.chk
 ----------------------------------------------
 #p M062X/DEF2TZVPP scrf=(solvent=water) em=GD3
 ----------------------------------------------
 1/38=1,172=1/1;
 2/12=2,17=6,18=5,40=1/2;
 3/5=44,7=202,11=2,25=1,30=1,70=2201,72=1,74=-55,124=31/1,2,3;
 4//1;
 5/5=2,38=5,53=1/2;
 6/7=2,8=2,9=2,10=2,28=1/1;
 99/5=1,9=1/99;
 Leave Link    1 at Fri Nov  7 03:05:28 2025, MaxMem= 30870077440 cpu:              14.3 elap:               0.2
 (Enter /public/software/gauss/g16/l101.exe)
 ---------------------------------
 Energy calculation for M100034873
 ---------------------------------
 Symbolic Z-matrix:
 Charge =  0 Multiplicity = 1
 C                     8.82961   0.40638   0.16414 
 C                     7.3277    0.27172   0.11147 
 C                     6.58249   0.09897   1.28362 
 C                     5.18774  -0.00357   1.26503 
 C                     4.42884  -0.18948   2.55767 
 C                     4.51787   0.06921   0.0253 
 C                     3.02477  -0.03477  -0.01636 
 C                     2.2469    1.133     0.03082 
 C                     2.61621   2.52229   0.12256 
 C                     3.97852   3.13653   0.2208 
 C                     1.43305   3.23909   0.09771 
 C                     0.3527    2.32641  -0.00732 
 C                    -1.05991   2.60179  -0.08793 
 C                    -1.58797   3.83916   0.07887 
 C                    -3.00104   4.19187   0.00201 
 C                    -4.02555   3.25035  -0.24115 
 C                    -5.35314   3.64165  -0.30279 
 C                    -5.69527   4.99599  -0.12094 
 C                    -7.06372   5.40019  -0.18212 
 N                    -8.18183   5.73031  -0.23198 
 C                    -4.69071   5.94842   0.12259 
 C                    -3.36503   5.54307   0.18246 
 N                     0.85773   1.06109  -0.04616 
 B                     0.02724  -0.24678   0.00693 
 F                    -0.88728  -0.27738  -1.05336 
 F                    -0.67672  -0.29071   1.22484 
 N                     1.01631  -1.43635  -0.09653 
 C                     0.71778  -2.7634   -0.24712 
 C                    -0.56916  -3.41866  -0.2613 
 C                    -1.77164  -2.96313   0.16785 
 C                    -3.02248  -3.71583   0.12796 
 C                    -3.16043  -4.97703  -0.49314 
 C                    -4.37427  -5.64512  -0.49127 
 C                    -5.49525  -5.06462   0.13372 
 C                    -6.74671  -5.7525    0.13544 
 N                    -7.76896  -6.31538   0.13713 
 C                    -5.38148  -3.80723   0.75152 
 C                    -4.15983  -3.14931   0.74188 
 C                     1.928    -3.48286  -0.38075 
 C                     2.99186  -2.60195  -0.2813 
 C                     4.43287  -3.00581  -0.35359 
 C                     2.41062  -1.30023  -0.11431 
 C                     5.24378   0.24094  -1.17042 
 C                     4.54811   0.31638  -2.50888 
 C                     6.63895   0.3365   -1.10366 
 H                     9.2837    0.19369  -0.80769 
 H                     9.12365   1.42436   0.44881 
 H                     9.2653   -0.27187   0.90451 
 H                     7.09835   0.04119   2.23928 
 H                     3.87099  -1.13255   2.56483 
 H                     5.11234  -0.19554   3.41024 
 H                     3.69875   0.61231   2.71432 
 H                     4.59129   2.91631  -0.65853 
 H                     3.88465   4.22222   0.3066 
 H                     4.52905   2.77128   1.09289 
 H                     1.34326   4.3159    0.13237 
 H                    -1.70275   1.75727  -0.30772 
 H                    -0.9208    4.67051   0.29475 
 H                    -3.78291   2.20276  -0.38023 
 H                    -6.13246   2.91074  -0.48875 
 H                    -4.95569   6.99071   0.26233 
 H                    -2.58969   6.27929   0.37076 
 H                    -0.49815  -4.4389   -0.63035 
 H                    -1.8424   -1.98015   0.61756 
 H                    -2.31388  -5.43824  -0.98958 
 H                    -4.46831  -6.61264  -0.97224 
 H                    -6.24556  -3.35938   1.22999 
 H                    -4.07336  -2.17816   1.21938 
 H                     1.99192  -4.55451  -0.51521 
 H                     4.95037  -2.53424  -1.19426 
 H                     4.98211  -2.73394   0.55261 
 H                     4.49973  -4.08967  -0.47956 
 H                     5.27564   0.42002  -3.31765 
 H                     3.95044  -0.58104  -2.70333 
 H                     3.86393   1.1708   -2.55881 
 H                     7.19891   0.464    -2.02699 
 
 ITRead=  0  0  0  0  0  0  0  0  0  0  0  0  0  0  0  0  0  0  0  0
 ITRead=  0  0  0  0  0  0  0  0  0  0  0  0  0  0  0  0  0  0  0  0
 ITRead=  0  0  0  0  0  0  0  0  0  0  0  0  0  0  0  0  0  0  0  0
 ITRead=  0  0  0  0  0  0  0  0  0  0  0  0  0  0  0  0
 MicOpt= -1 -1 -1 -1 -1 -1 -1 -1 -1 -1 -1 -1 -1 -1 -1 -1 -1 -1 -1 -1
 MicOpt= -1 -1 -1 -1 -1 -1 -1 -1 -1 -1 -1 -1 -1 -1 -1 -1 -1 -1 -1 -1
 MicOpt= -1 -1 -1 -1 -1 -1 -1 -1 -1 -1 -1 -1 -1 -1 -1 -1 -1 -1 -1 -1
 MicOpt= -1 -1 -1 -1 -1 -1 -1 -1 -1 -1 -1 -1 -1 -1 -1 -1
 NAtoms=     76 NQM=       76 NQMF=       0 NMMI=      0 NMMIF=      0
                NMic=       0 NMicF=      0.
                    Isotopes and Nuclear Properties:
 (Nuclear quadrupole moments (NQMom) in fm**2, nuclear magnetic moments (NMagM)
  in nuclear magnetons)

  Atom         1           2           3           4           5           6           7           8           9          10
 IAtWgt=          12          12          12          12          12          12          12          12          12          12
 AtmWgt=  12.0000000  12.0000000  12.0000000  12.0000000  12.0000000  12.0000000  12.0000000  12.0000000  12.0000000  12.0000000
 NucSpn=           0           0           0           0           0           0           0           0           0           0
 AtZEff=  -0.0000000  -0.0000000  -0.0000000  -0.0000000  -0.0000000  -0.0000000  -0.0000000  -0.0000000  -0.0000000  -0.0000000
 NQMom=    0.0000000   0.0000000   0.0000000   0.0000000   0.0000000   0.0000000   0.0000000   0.0000000   0.0000000   0.0000000
 NMagM=    0.0000000   0.0000000   0.0000000   0.0000000   0.0000000   0.0000000   0.0000000   0.0000000   0.0000000   0.0000000
 AtZNuc=   6.0000000   6.0000000   6.0000000   6.0000000   6.0000000   6.0000000   6.0000000   6.0000000   6.0000000   6.0000000

  Atom        11          12          13          14          15          16          17          18          19          20
 IAtWgt=          12          12          12          12          12          12          12          12          12          14
 AtmWgt=  12.0000000  12.0000000  12.0000000  12.0000000  12.0000000  12.0000000  12.0000000  12.0000000  12.0000000  14.0030740
 NucSpn=           0           0           0           0           0           0           0           0           0           2
 AtZEff=  -0.0000000  -0.0000000  -0.0000000  -0.0000000  -0.0000000  -0.0000000  -0.0000000  -0.0000000  -0.0000000  -0.0000000
 NQMom=    0.0000000   0.0000000   0.0000000   0.0000000   0.0000000   0.0000000   0.0000000   0.0000000   0.0000000   2.0440000
 NMagM=    0.0000000   0.0000000   0.0000000   0.0000000   0.0000000   0.0000000   0.0000000   0.0000000   0.0000000   0.4037610
 AtZNuc=   6.0000000   6.0000000   6.0000000   6.0000000   6.0000000   6.0000000   6.0000000   6.0000000   6.0000000   7.0000000

  Atom        21          22          23          24          25          26          27          28          29          30
 IAtWgt=          12          12          14          11          19          19          14          12          12          12
 AtmWgt=  12.0000000  12.0000000  14.0030740  11.0093053  18.9984033  18.9984033  14.0030740  12.0000000  12.0000000  12.0000000
 NucSpn=           0           0           2           3           1           1           2           0           0           0
 AtZEff=  -0.0000000  -0.0000000  -0.0000000  -0.0000000  -0.0000000  -0.0000000  -0.0000000  -0.0000000  -0.0000000  -0.0000000
 NQMom=    0.0000000   0.0000000   2.0440000   4.0590000   0.0000000   0.0000000   2.0440000   0.0000000   0.0000000   0.0000000
 NMagM=    0.0000000   0.0000000   0.4037610   2.6886370   2.6288670   2.6288670   0.4037610   0.0000000   0.0000000   0.0000000
 AtZNuc=   6.0000000   6.0000000   7.0000000   5.0000000   9.0000000   9.0000000   7.0000000   6.0000000   6.0000000   6.0000000

  Atom        31          32          33          34          35          36          37          38          39          40
 IAtWgt=          12          12          12          12          12          14          12          12          12          12
 AtmWgt=  12.0000000  12.0000000  12.0000000  12.0000000  12.0000000  14.0030740  12.0000000  12.0000000  12.0000000  12.0000000
 NucSpn=           0           0           0           0           0           2           0           0           0           0
 AtZEff=  -0.0000000  -0.0000000  -0.0000000  -0.0000000  -0.0000000  -0.0000000  -0.0000000  -0.0000000  -0.0000000  -0.0000000
 NQMom=    0.0000000   0.0000000   0.0000000   0.0000000   0.0000000   2.0440000   0.0000000   0.0000000   0.0000000   0.0000000
 NMagM=    0.0000000   0.0000000   0.0000000   0.0000000   0.0000000   0.4037610   0.0000000   0.0000000   0.0000000   0.0000000
 AtZNuc=   6.0000000   6.0000000   6.0000000   6.0000000   6.0000000   7.0000000   6.0000000   6.0000000   6.0000000   6.0000000

  Atom        41          42          43          44          45          46          47          48          49          50
 IAtWgt=          12          12          12          12          12           1           1           1           1           1
 AtmWgt=  12.0000000  12.0000000  12.0000000  12.0000000  12.0000000   1.0078250   1.0078250   1.0078250   1.0078250   1.0078250
 NucSpn=           0           0           0           0           0           1           1           1           1           1
 AtZEff=  -0.0000000  -0.0000000  -0.0000000  -0.0000000  -0.0000000  -0.0000000  -0.0000000  -0.0000000  -0.0000000  -0.0000000
 NQMom=    0.0000000   0.0000000   0.0000000   0.0000000   0.0000000   0.0000000   0.0000000   0.0000000   0.0000000   0.0000000
 NMagM=    0.0000000   0.0000000   0.0000000   0.0000000   0.0000000   2.7928460   2.7928460   2.7928460   2.7928460   2.7928460
 AtZNuc=   6.0000000   6.0000000   6.0000000   6.0000000   6.0000000   1.0000000   1.0000000   1.0000000   1.0000000   1.0000000

  Atom        51          52          53          54          55          56          57          58          59          60
 IAtWgt=           1           1           1           1           1           1           1           1           1           1
 AtmWgt=   1.0078250   1.0078250   1.0078250   1.0078250   1.0078250   1.0078250   1.0078250   1.0078250   1.0078250   1.0078250
 NucSpn=           1           1           1           1           1           1           1           1           1           1
 AtZEff=  -0.0000000  -0.0000000  -0.0000000  -0.0000000  -0.0000000  -0.0000000  -0.0000000  -0.0000000  -0.0000000  -0.0000000
 NQMom=    0.0000000   0.0000000   0.0000000   0.0000000   0.0000000   0.0000000   0.0000000   0.0000000   0.0000000   0.0000000
 NMagM=    2.7928460   2.7928460   2.7928460   2.7928460   2.7928460   2.7928460   2.7928460   2.7928460   2.7928460   2.7928460
 AtZNuc=   1.0000000   1.0000000   1.0000000   1.0000000   1.0000000   1.0000000   1.0000000   1.0000000   1.0000000   1.0000000

  Atom        61          62          63          64          65          66          67          68          69          70
 IAtWgt=           1           1           1           1           1           1           1           1           1           1
 AtmWgt=   1.0078250   1.0078250   1.0078250   1.0078250   1.0078250   1.0078250   1.0078250   1.0078250   1.0078250   1.0078250
 NucSpn=           1           1           1           1           1           1           1           1           1           1
 AtZEff=  -0.0000000  -0.0000000  -0.0000000  -0.0000000  -0.0000000  -0.0000000  -0.0000000  -0.0000000  -0.0000000  -0.0000000
 NQMom=    0.0000000   0.0000000   0.0000000   0.0000000   0.0000000   0.0000000   0.0000000   0.0000000   0.0000000   0.0000000
 NMagM=    2.7928460   2.7928460   2.7928460   2.7928460   2.7928460   2.7928460   2.7928460   2.7928460   2.7928460   2.7928460
 AtZNuc=   1.0000000   1.0000000   1.0000000   1.0000000   1.0000000   1.0000000   1.0000000   1.0000000   1.0000000   1.0000000

  Atom        71          72          73          74          75          76
 IAtWgt=           1           1           1           1           1           1
 AtmWgt=   1.0078250   1.0078250   1.0078250   1.0078250   1.0078250   1.0078250
 NucSpn=           1           1           1           1           1           1
 AtZEff=  -0.0000000  -0.0000000  -0.0000000  -0.0000000  -0.0000000  -0.0000000
 NQMom=    0.0000000   0.0000000   0.0000000   0.0000000   0.0000000   0.0000000
 NMagM=    2.7928460   2.7928460   2.7928460   2.7928460   2.7928460   2.7928460
 AtZNuc=   1.0000000   1.0000000   1.0000000   1.0000000   1.0000000   1.0000000
 Leave Link  101 at Fri Nov  7 03:05:28 2025, MaxMem= 30870077440 cpu:               3.9 elap:               0.1
 (Enter /public/software/gauss/g16/l202.exe)
 Stoichiometry    C38H31BF2N4
 Framework group  C1[X(C38H31BF2N4)]
 Deg. of freedom   222
 Full point group                 C1      NOp   1
 Largest Abelian subgroup         C1      NOp   1
 Largest concise Abelian subgroup C1      NOp   1
                         Standard orientation:                         
 ---------------------------------------------------------------------
 Center     Atomic      Atomic             Coordinates (Angstroms)
 Number     Number       Type             X           Y           Z
 ---------------------------------------------------------------------
      1          6           0       -8.829607   -0.406381    0.164144
      2          6           0       -7.327701   -0.271715    0.111473
      3          6           0       -6.582487   -0.098972    1.283624
      4          6           0       -5.187743    0.003570    1.265025
      5          6           0       -4.428839    0.189479    2.557669
      6          6           0       -4.517869   -0.069207    0.025299
      7          6           0       -3.024766    0.034774   -0.016357
      8          6           0       -2.246905   -1.133004    0.030821
      9          6           0       -2.616208   -2.522290    0.122562
     10          6           0       -3.978522   -3.136530    0.220798
     11          6           0       -1.433049   -3.239091    0.097711
     12          6           0       -0.352698   -2.326407   -0.007323
     13          6           0        1.059905   -2.601791   -0.087933
     14          6           0        1.587972   -3.839164    0.078872
     15          6           0        3.001041   -4.191870    0.002013
     16          6           0        4.025555   -3.250351   -0.241147
     17          6           0        5.353139   -3.641648   -0.302788
     18          6           0        5.695274   -4.995989   -0.120937
     19          6           0        7.063724   -5.400194   -0.182122
     20          7           0        8.181835   -5.730309   -0.231977
     21          6           0        4.690707   -5.948423    0.122594
     22          6           0        3.365027   -5.543069    0.182456
     23          7           0       -0.857730   -1.061085   -0.046158
     24          5           0       -0.027235    0.246779    0.006931
     25          9           0        0.887277    0.277384   -1.053361
     26          9           0        0.676716    0.290712    1.224840
     27          7           0       -1.016311    1.436351   -0.096528
     28          6           0       -0.717779    2.763396   -0.247117
     29          6           0        0.569159    3.418655   -0.261300
     30          6           0        1.771641    2.963130    0.167849
     31          6           0        3.022482    3.715825    0.127959
     32          6           0        3.160430    4.977025   -0.493141
     33          6           0        4.374275    5.645118   -0.491271
     34          6           0        5.495249    5.064617    0.133718
     35          6           0        6.746713    5.752499    0.135439
     36          7           0        7.768957    6.315382    0.137127
     37          6           0        5.381483    3.807229    0.751518
     38          6           0        4.159831    3.149308    0.741876
     39          6           0       -1.927996    3.482858   -0.380746
     40          6           0       -2.991861    2.601953   -0.281303
     41          6           0       -4.432871    3.005810   -0.353594
     42          6           0       -2.410620    1.300225   -0.114305
     43          6           0       -5.243782   -0.240938   -1.170415
     44          6           0       -4.548114   -0.316375   -2.508875
     45          6           0       -6.638953   -0.336498   -1.103663
     46          1           0       -9.283697   -0.193688   -0.807691
     47          1           0       -9.123649   -1.424356    0.448807
     48          1           0       -9.265302    0.271870    0.904513
     49          1           0       -7.098349   -0.041186    2.239277
     50          1           0       -3.870988    1.132554    2.564827
     51          1           0       -5.112337    0.195537    3.410235
     52          1           0       -3.698750   -0.612309    2.714319
     53          1           0       -4.591288   -2.916310   -0.658526
     54          1           0       -3.884647   -4.222225    0.306601
     55          1           0       -4.529054   -2.771279    1.092894
     56          1           0       -1.343256   -4.315897    0.132366
     57          1           0        1.702746   -1.757271   -0.307718
     58          1           0        0.920800   -4.670511    0.294750
     59          1           0        3.782907   -2.202757   -0.380232
     60          1           0        6.132456   -2.910743   -0.488752
     61          1           0        4.955690   -6.990710    0.262328
     62          1           0        2.589690   -6.279290    0.370756
     63          1           0        0.498148    4.438895   -0.630349
     64          1           0        1.842395    1.980153    0.617559
     65          1           0        2.313878    5.438241   -0.989582
     66          1           0        4.468306    6.612641   -0.972241
     67          1           0        6.245556    3.359378    1.229989
     68          1           0        4.073364    2.178164    1.219375
     69          1           0       -1.991917    4.554506   -0.515205
     70          1           0       -4.950367    2.534238   -1.194262
     71          1           0       -4.982107    2.733935    0.552613
     72          1           0       -4.499729    4.089672   -0.479559
     73          1           0       -5.275643   -0.420017   -3.317646
     74          1           0       -3.950439    0.581041   -2.703332
     75          1           0       -3.863930   -1.170802   -2.558805
     76          1           0       -7.198908   -0.463996   -2.026991
 ---------------------------------------------------------------------
 Rotational constants (GHZ):           0.0728479           0.0422285           0.0278446
 Leave Link  202 at Fri Nov  7 03:05:28 2025, MaxMem= 30870077440 cpu:               0.2 elap:               0.0
 (Enter /public/software/gauss/g16/l301.exe)
 Standard basis: def2TZVPP (5D, 7F)
 Ernie: Thresh=  0.10000D-02 Tol=  0.10000D-05 Strict=F.
 There are  2085 symmetry adapted cartesian basis functions of A   symmetry.
 There are  1829 symmetry adapted basis functions of A   symmetry.
  1829 basis functions,  2822 primitive gaussians,  2085 cartesian basis functions
   155 alpha electrons      155 beta electrons
       nuclear repulsion energy      4915.5753958672 Hartrees.
 IExCor= 4336 DFT=T Ex+Corr=M062X ExCW=0 ScaHFX=  0.540000
 ScaDFX=  1.000000  1.000000  1.000000  1.000000 ScalE2=  1.000000  1.000000
 IRadAn=      5 IRanWt=     -1 IRanGd=            0 ICorTp=0 IEmpDi=131
 NAtoms=   76 NActive=   76 NUniq=   76 SFac= 1.00D+00 NAtFMM=   60 NAOKFM=T Big=T
 Integral buffers will be    131072 words long.
 Raffenetti 2 integral format.
 Two-electron integral symmetry is turned on.
 R6Disp:  Grimme-D3 Dispersion energy=       -0.0070175983 Hartrees.
 Nuclear repulsion after empirical dispersion term =     4915.5683782689 Hartrees.
 ------------------------------------------------------------------------------
 Polarizable Continuum Model (PCM)
 =================================
 Model                : PCM.
 Atomic radii         : UFF (Universal Force Field).
 Polarization charges : Total charges.
 Charge compensation  : None.
 Solution method      : On-the-fly selection.
 Cavity type          : Scaled VdW (van der Waals Surface) (Alpha=1.100).
 Cavity algorithm     : GePol (No added spheres)
                        Default sphere list used, NSphG=   76.
                        Lebedev-Laikov grids with approx.  5.0 points / Ang**2.
                        Smoothing algorithm: York/Karplus (Gamma=1.0000).
                        Polarization charges: spherical gaussians, with
                                              point-specific exponents (IZeta= 3).
                        Self-potential: point-specific (ISelfS= 7).
                        Self-field    : sphere-specific E.n sum rule (ISelfD= 2).
 Solvent              : Water, Eps=  78.355300 Eps(inf)=   1.777849
 ------------------------------------------------------------------------------
 GePol: Number of generator spheres                  =      76
 GePol: Total number of spheres                      =      76
 GePol: Number of exposed spheres                    =      76 (100.00%)
 GePol: Number of points                             =    5433
 GePol: Average weight of points                     =       0.13
 GePol: Minimum weight of points                     =   0.49D-10
 GePol: Maximum weight of points                     =    0.20577
 GePol: Number of points with low weight             =     355
 GePol: Fraction of low-weight points (<1% of avg)   =       6.53%
 GePol: Cavity surface area                          =    695.002 Ang**2
 GePol: Cavity volume                                =    813.466 Ang**3
 Leave Link  301 at Fri Nov  7 03:05:28 2025, MaxMem= 30870077440 cpu:               3.6 elap:               0.1
 (Enter /public/software/gauss/g16/l302.exe)
 NPDir=0 NMtPBC=     1 NCelOv=     1 NCel=       1 NClECP=     1 NCelD=      1
         NCelK=      1 NCelE2=     1 NClLst=     1 CellRange=     0.0.
 One-electron integrals computed using PRISM.
 One-electron integral symmetry used in STVInt
   1 Symmetry operations used in ECPInt.
 ECPInt:  NShTT=  232221 NPrTT=  660609 LenC2=  153051 LenP2D=  293969.
 LDataN:  DoStor=T MaxTD1= 6 Len=  172
 NBasis=  1829 RedAO= T EigKep=  2.31D-06  NBF=  1829
 NBsUse=  1829 1.00D-06 EigRej= -1.00D+00 NBFU=  1829
 Precomputing XC quadrature grid using
 IXCGrd= 4 IRadAn=           5 IRanWt=          -1 IRanGd=           0 AccXCQ= 0.00D+00.
 Generated NRdTot=       0 NPtTot=           0 NUsed=           0 NTot=          32
 NSgBfM=  1848  1848  1848  1848  1848 MxSgAt=    76 MxSgA2=    76.
 Leave Link  302 at Fri Nov  7 03:05:37 2025, MaxMem= 30870077440 cpu:             578.0 elap:               9.1
 (Enter /public/software/gauss/g16/l303.exe)
 DipDrv:  MaxL=1.
 Leave Link  303 at Fri Nov  7 03:05:38 2025, MaxMem= 30870077440 cpu:              27.1 elap:               0.5
 (Enter /public/software/gauss/g16/l401.exe)
 ExpMin= 6.06D-02 ExpMax= 3.55D+04 ExpMxC= 1.21D+03 IAcc=3 IRadAn=         5 AccDes= 0.00D+00
 Harris functional with IExCor= 1009 and IRadAn=       5 diagonalized for initial guess.
 HarFok:  IExCor= 1009 AccDes= 0.00D+00 IRadAn=         5 IDoV= 1 UseB2=F ITyADJ=14
 ICtDFT=  3500011 ScaDFX=  1.000000  1.000000  1.000000  1.000000
 FoFCou: FMM=F IPFlag=           0 FMFlag=      100000 FMFlg1=        2001
         NFxFlg=           0 DoJE=T BraDBF=F KetDBF=T FulRan=T
         wScrn=  0.000000 ICntrl=       500 IOpCl=  0 I1Cent=   200000004 NGrid=           0
         NMat0=    1 NMatS0=      1 NMatT0=    0 NMatD0=    1 NMtDS0=    0 NMtDT0=    0
 Petite list used in FoFCou.
 Harris En= -1909.43514821751    
 JPrj=0 DoOrth=F DoCkMO=F.
 Leave Link  401 at Fri Nov  7 03:05:49 2025, MaxMem= 30870077440 cpu:             684.2 elap:              10.8
 (Enter /public/software/gauss/g16/l502.exe)
 Integral symmetry usage will be decided dynamically.
 Closed shell SCF:
 Using DIIS extrapolation, IDIIS=  1040.
 NGot= 30870077440 LenX= 30861232002 LenY= 30856882692
 Requested convergence on RMS density matrix=1.00D-08 within 128 cycles.
 Requested convergence on MAX density matrix=1.00D-06.
 Requested convergence on             energy=1.00D-06.
 No special actions if energy rises.
 Fock matrices will be formed incrementally for  20 cycles.

 Cycle   1  Pass 1  IDiag  1:
 FoFJK:  IHMeth= 1 ICntrl=       0 DoSepK=F KAlg= 0 I1Cent=           0 FoldK=F
 IRaf= 630000000 NMat=       1 IRICut=       1 DoRegI=T DoRafI=F ISym2E= 0 IDoP0=0 IntGTp=1.
 FoFCou: FMM=T IPFlag=           0 FMFlag=      100000 FMFlg1=        2001
         NFxFlg=           0 DoJE=F BraDBF=F KetDBF=F FulRan=T
         wScrn=  0.000000 ICntrl=         0 IOpCl=  0 I1Cent=           0 NGrid=           0
         NMat0=    1 NMatS0=      1 NMatT0=    0 NMatD0=    1 NMtDS0=    0 NMtDT0=    0
 Symmetry not used in FoFCou.
 FMM levels:  10  Number of levels for PrismC:   9
 Inv3:  Mode=1 IEnd=    88552467.
 Iteration    1 A*A^-1 deviation from unit magnitude is 1.40D-14 for    480.
 Iteration    1 A*A^-1 deviation from orthogonality  is 4.74D-15 for   3561     83.
 Iteration    1 A^-1*A deviation from unit magnitude is 1.35D-14 for    480.
 Iteration    1 A^-1*A deviation from orthogonality  is 9.61D-15 for   4871   2718.
 E= -1909.43431343264    
 DIIS: error= 2.14D-02 at cycle   1 NSaved=   1.
 NSaved= 1 IEnMin= 1 EnMin= -1909.43431343264     IErMin= 1 ErrMin= 2.14D-02
 ErrMax= 2.14D-02  0.00D+00 EMaxC= 1.00D-01 BMatC= 1.23D+00 BMatP= 1.23D+00
 IDIUse=3 WtCom= 7.86D-01 WtEn= 2.14D-01
 Coeff-Com:  0.100D+01
 Coeff-En:   0.100D+01
 Coeff:      0.100D+01
 Gap=     0.132 Goal=   None    Shift=    0.000
 GapD=    0.132 DampG=1.000 DampE=0.500 DampFc=0.5000 IDamp=-1.
 Damping current iteration by 5.00D-01
 RMSDP=1.47D-03 MaxDP=3.33D-01              OVMax= 1.55D-01

 Cycle   2  Pass 1  IDiag  1:
 RMSU=  7.31D-04    CP:  9.78D-01
 E= -1909.94628199903     Delta-E=       -0.511968566391 Rises=F Damp=T
 DIIS: error= 4.08D-03 at cycle   2 NSaved=   2.
 NSaved= 2 IEnMin= 2 EnMin= -1909.94628199903     IErMin= 2 ErrMin= 4.08D-03
 ErrMax= 4.08D-03  0.00D+00 EMaxC= 1.00D-01 BMatC= 1.20D-01 BMatP= 1.23D+00
 IDIUse=3 WtCom= 9.59D-01 WtEn= 4.08D-02
 Coeff-Com: -0.184D+00 0.118D+01
 Coeff-En:   0.000D+00 0.100D+01
 Coeff:     -0.177D+00 0.118D+01
 Gap=     0.141 Goal=   None    Shift=    0.000
 RMSDP=6.92D-04 MaxDP=7.84D-02 DE=-5.12D-01 OVMax= 1.14D-01

 Cycle   3  Pass 1  IDiag  1:
 RMSU=  6.37D-04    CP:  9.50D-01  1.34D+00
 E= -1910.36651507328     Delta-E=       -0.420233074257 Rises=F Damp=F
 DIIS: error= 4.21D-03 at cycle   3 NSaved=   3.
 NSaved= 3 IEnMin= 3 EnMin= -1910.36651507328     IErMin= 2 ErrMin= 4.08D-03
 ErrMax= 4.21D-03  0.00D+00 EMaxC= 1.00D-01 BMatC= 5.87D-02 BMatP= 1.20D-01
 IDIUse=3 WtCom= 9.58D-01 WtEn= 4.21D-02
 Coeff-Com: -0.146D+00 0.545D+00 0.602D+00
 Coeff-En:   0.000D+00 0.000D+00 0.100D+01
 Coeff:     -0.140D+00 0.522D+00 0.619D+00
 Gap=     0.135 Goal=   None    Shift=    0.000
 RMSDP=1.94D-04 MaxDP=4.09D-02 DE=-4.20D-01 OVMax= 5.39D-02

 Cycle   4  Pass 1  IDiag  1:
 RMSU=  1.73D-04    CP:  9.54D-01  1.43D+00  9.11D-01
 E= -1910.40542285814     Delta-E=       -0.038907784861 Rises=F Damp=F
 DIIS: error= 2.04D-03 at cycle   4 NSaved=   4.
 NSaved= 4 IEnMin= 4 EnMin= -1910.40542285814     IErMin= 4 ErrMin= 2.04D-03
 ErrMax= 2.04D-03  0.00D+00 EMaxC= 1.00D-01 BMatC= 1.42D-02 BMatP= 5.87D-02
 IDIUse=3 WtCom= 9.80D-01 WtEn= 2.04D-02
 Coeff-Com: -0.508D-01 0.132D+00 0.362D+00 0.557D+00
 Coeff-En:   0.000D+00 0.000D+00 0.208D+00 0.792D+00
 Coeff:     -0.497D-01 0.129D+00 0.359D+00 0.562D+00
 Gap=     0.137 Goal=   None    Shift=    0.000
 RMSDP=8.36D-05 MaxDP=2.80D-02 DE=-3.89D-02 OVMax= 2.03D-02

 Cycle   5  Pass 1  IDiag  1:
 RMSU=  6.54D-05    CP:  9.53D-01  1.41D+00  9.33D-01  7.29D-01
 E= -1910.41765976692     Delta-E=       -0.012236908777 Rises=F Damp=F
 DIIS: error= 3.89D-04 at cycle   5 NSaved=   5.
 NSaved= 5 IEnMin= 5 EnMin= -1910.41765976692     IErMin= 5 ErrMin= 3.89D-04
 ErrMax= 3.89D-04  0.00D+00 EMaxC= 1.00D-01 BMatC= 5.27D-04 BMatP= 1.42D-02
 IDIUse=3 WtCom= 9.96D-01 WtEn= 3.89D-03
 Coeff-Com: -0.165D-01 0.349D-01 0.144D+00 0.272D+00 0.565D+00
 Coeff-En:   0.000D+00 0.000D+00 0.000D+00 0.000D+00 0.100D+01
 Coeff:     -0.164D-01 0.348D-01 0.144D+00 0.271D+00 0.567D+00
 Gap=     0.137 Goal=   None    Shift=    0.000
 RMSDP=2.12D-05 MaxDP=2.26D-03 DE=-1.22D-02 OVMax= 4.23D-03

 Cycle   6  Pass 1  IDiag  1:
 RMSU=  1.80D-05    CP:  9.53D-01  1.42D+00  9.31D-01  7.30D-01  8.43D-01
 E= -1910.41809145847     Delta-E=       -0.000431691547 Rises=F Damp=F
 DIIS: error= 1.10D-04 at cycle   6 NSaved=   6.
 NSaved= 6 IEnMin= 6 EnMin= -1910.41809145847     IErMin= 6 ErrMin= 1.10D-04
 ErrMax= 1.10D-04  0.00D+00 EMaxC= 1.00D-01 BMatC= 4.52D-05 BMatP= 5.27D-04
 IDIUse=3 WtCom= 9.99D-01 WtEn= 1.10D-03
 Coeff-Com: -0.271D-02 0.388D-02 0.328D-01 0.714D-01 0.265D+00 0.630D+00
 Coeff-En:   0.000D+00 0.000D+00 0.000D+00 0.000D+00 0.000D+00 0.100D+01
 Coeff:     -0.271D-02 0.388D-02 0.327D-01 0.713D-01 0.265D+00 0.630D+00
 Gap=     0.138 Goal=   None    Shift=    0.000
 RMSDP=6.03D-06 MaxDP=9.68D-04 DE=-4.32D-04 OVMax= 2.27D-03

 Cycle   7  Pass 1  IDiag  1:
 RMSU=  5.06D-06    CP:  9.53D-01  1.42D+00  9.30D-01  7.35D-01  8.91D-01
                    CP:  1.02D+00
 E= -1910.41813478826     Delta-E=       -0.000043329791 Rises=F Damp=F
 DIIS: error= 3.56D-05 at cycle   7 NSaved=   7.
 NSaved= 7 IEnMin= 7 EnMin= -1910.41813478826     IErMin= 7 ErrMin= 3.56D-05
 ErrMax= 3.56D-05  0.00D+00 EMaxC= 1.00D-01 BMatC= 5.82D-06 BMatP= 4.52D-05
 IDIUse=1 WtCom= 1.00D+00 WtEn= 0.00D+00
 Coeff-Com:  0.128D-02-0.345D-02-0.798D-02-0.115D-01 0.305D-01 0.281D+00
 Coeff-Com:  0.710D+00
 Coeff:      0.128D-02-0.345D-02-0.798D-02-0.115D-01 0.305D-01 0.281D+00
 Coeff:      0.710D+00
 Gap=     0.138 Goal=   None    Shift=    0.000
 RMSDP=3.45D-06 MaxDP=6.60D-04 DE=-4.33D-05 OVMax= 1.33D-03

 Cycle   8  Pass 1  IDiag  1:
 RMSU=  2.57D-06    CP:  9.53D-01  1.42D+00  9.30D-01  7.40D-01  9.01D-01
                    CP:  1.09D+00  1.28D+00
 E= -1910.41814250117     Delta-E=       -0.000007712912 Rises=F Damp=F
 DIIS: error= 1.42D-05 at cycle   8 NSaved=   8.
 NSaved= 8 IEnMin= 8 EnMin= -1910.41814250117     IErMin= 8 ErrMin= 1.42D-05
 ErrMax= 1.42D-05  0.00D+00 EMaxC= 1.00D-01 BMatC= 7.27D-07 BMatP= 5.82D-06
 IDIUse=1 WtCom= 1.00D+00 WtEn= 0.00D+00
 Coeff-Com:  0.929D-03-0.201D-02-0.829D-02-0.159D-01-0.291D-01 0.174D-01
 Coeff-Com:  0.286D+00 0.751D+00
 Coeff:      0.929D-03-0.201D-02-0.829D-02-0.159D-01-0.291D-01 0.174D-01
 Coeff:      0.286D+00 0.751D+00
 Gap=     0.138 Goal=   None    Shift=    0.000
 RMSDP=1.52D-06 MaxDP=3.57D-04 DE=-7.71D-06 OVMax= 6.54D-04

 Cycle   9  Pass 1  IDiag  1:
 RMSU=  1.12D-06    CP:  9.53D-01  1.42D+00  9.30D-01  7.41D-01  9.11D-01
                    CP:  1.12D+00  1.38D+00  1.04D+00
 E= -1910.41814386561     Delta-E=       -0.000001364441 Rises=F Damp=F
 DIIS: error= 6.83D-06 at cycle   9 NSaved=   9.
 NSaved= 9 IEnMin= 9 EnMin= -1910.41814386561     IErMin= 9 ErrMin= 6.83D-06
 ErrMax= 6.83D-06  0.00D+00 EMaxC= 1.00D-01 BMatC= 6.11D-08 BMatP= 7.27D-07
 IDIUse=1 WtCom= 1.00D+00 WtEn= 0.00D+00
 Coeff-Com:  0.825D-04-0.113D-03-0.129D-02-0.309D-02-0.119D-01-0.268D-01
 Coeff-Com: -0.952D-02 0.188D+00 0.865D+00
 Coeff:      0.825D-04-0.113D-03-0.129D-02-0.309D-02-0.119D-01-0.268D-01
 Coeff:     -0.952D-02 0.188D+00 0.865D+00
 Gap=     0.138 Goal=   None    Shift=    0.000
 RMSDP=6.18D-07 MaxDP=1.63D-04 DE=-1.36D-06 OVMax= 3.36D-04

 Cycle  10  Pass 1  IDiag  1:
 RMSU=  4.17D-07    CP:  9.53D-01  1.42D+00  9.30D-01  7.41D-01  9.12D-01
                    CP:  1.13D+00  1.41D+00  1.16D+00  1.17D+00
 E= -1910.41814404499     Delta-E=       -0.000000179375 Rises=F Damp=F
 DIIS: error= 2.63D-06 at cycle  10 NSaved=  10.
 NSaved=10 IEnMin=10 EnMin= -1910.41814404499     IErMin=10 ErrMin= 2.63D-06
 ErrMax= 2.63D-06  0.00D+00 EMaxC= 1.00D-01 BMatC= 1.47D-08 BMatP= 6.11D-08
 IDIUse=1 WtCom= 1.00D+00 WtEn= 0.00D+00
 Coeff-Com: -0.992D-04 0.240D-03 0.624D-03 0.102D-02-0.651D-03-0.114D-01
 Coeff-Com: -0.408D-01-0.364D-01 0.339D+00 0.749D+00
 Coeff:     -0.992D-04 0.240D-03 0.624D-03 0.102D-02-0.651D-03-0.114D-01
 Coeff:     -0.408D-01-0.364D-01 0.339D+00 0.749D+00
 Gap=     0.138 Goal=   None    Shift=    0.000
 RMSDP=2.57D-07 MaxDP=7.63D-05 DE=-1.79D-07 OVMax= 1.26D-04

 Cycle  11  Pass 1  IDiag  1:
 RMSU=  1.36D-07    CP:  9.53D-01  1.42D+00  9.30D-01  7.42D-01  9.11D-01
                    CP:  1.13D+00  1.43D+00  1.21D+00  1.27D+00  1.15D+00
 E= -1910.41814407280     Delta-E=       -0.000000027817 Rises=F Damp=F
 DIIS: error= 9.34D-07 at cycle  11 NSaved=  11.
 NSaved=11 IEnMin=11 EnMin= -1910.41814407280     IErMin=11 ErrMin= 9.34D-07
 ErrMax= 9.34D-07  0.00D+00 EMaxC= 1.00D-01 BMatC= 3.04D-09 BMatP= 1.47D-08
 IDIUse=1 WtCom= 1.00D+00 WtEn= 0.00D+00
 Coeff-Com: -0.620D-04 0.137D-03 0.504D-03 0.101D-02 0.142D-02-0.157D-02
 Coeff-Com: -0.191D-01-0.492D-01 0.297D-01 0.360D+00 0.677D+00
 Coeff:     -0.620D-04 0.137D-03 0.504D-03 0.101D-02 0.142D-02-0.157D-02
 Coeff:     -0.191D-01-0.492D-01 0.297D-01 0.360D+00 0.677D+00
 Gap=     0.138 Goal=   None    Shift=    0.000
 RMSDP=7.52D-08 MaxDP=9.01D-06 DE=-2.78D-08 OVMax= 4.38D-05

 Cycle  12  Pass 1  IDiag  1:
 RMSU=  5.32D-08    CP:  9.53D-01  1.42D+00  9.30D-01  7.42D-01  9.11D-01
                    CP:  1.13D+00  1.43D+00  1.22D+00  1.30D+00  1.22D+00
                    CP:  1.01D+00
 E= -1910.41814407761     Delta-E=       -0.000000004802 Rises=F Damp=F
 DIIS: error= 3.46D-07 at cycle  12 NSaved=  12.
 NSaved=12 IEnMin=12 EnMin= -1910.41814407761     IErMin=12 ErrMin= 3.46D-07
 ErrMax= 3.46D-07  0.00D+00 EMaxC= 1.00D-01 BMatC= 3.53D-10 BMatP= 3.04D-09
 IDIUse=1 WtCom= 1.00D+00 WtEn= 0.00D+00
 Coeff-Com: -0.137D-04 0.285D-04 0.137D-03 0.315D-03 0.647D-03 0.750D-03
 Coeff-Com: -0.324D-02-0.169D-01-0.293D-01 0.635D-01 0.292D+00 0.692D+00
 Coeff:     -0.137D-04 0.285D-04 0.137D-03 0.315D-03 0.647D-03 0.750D-03
 Coeff:     -0.324D-02-0.169D-01-0.293D-01 0.635D-01 0.292D+00 0.692D+00
 Gap=     0.138 Goal=   None    Shift=    0.000
 RMSDP=4.02D-08 MaxDP=1.34D-05 DE=-4.80D-09 OVMax= 1.93D-05

 Cycle  13  Pass 1  IDiag  1:
 RMSU=  2.04D-08    CP:  9.53D-01  1.42D+00  9.30D-01  7.42D-01  9.11D-01
                    CP:  1.13D+00  1.43D+00  1.22D+00  1.31D+00  1.24D+00
                    CP:  1.12D+00  1.20D+00
 E= -1910.41814407784     Delta-E=       -0.000000000231 Rises=F Damp=F
 DIIS: error= 1.46D-07 at cycle  13 NSaved=  13.
 NSaved=13 IEnMin=13 EnMin= -1910.41814407784     IErMin=13 ErrMin= 1.46D-07
 ErrMax= 1.46D-07  0.00D+00 EMaxC= 1.00D-01 BMatC= 8.93D-11 BMatP= 3.53D-10
 IDIUse=1 WtCom= 1.00D+00 WtEn= 0.00D+00
 Coeff-Com:  0.391D-05-0.941D-05-0.178D-04-0.119D-04 0.736D-04 0.685D-03
 Coeff-Com:  0.172D-02 0.306D-03-0.195D-01-0.299D-01 0.363D-01 0.366D+00
 Coeff-Com:  0.645D+00
 Coeff:      0.391D-05-0.941D-05-0.178D-04-0.119D-04 0.736D-04 0.685D-03
 Coeff:      0.172D-02 0.306D-03-0.195D-01-0.299D-01 0.363D-01 0.366D+00
 Coeff:      0.645D+00
 Gap=     0.138 Goal=   None    Shift=    0.000
 RMSDP=1.51D-08 MaxDP=4.06D-06 DE=-2.31D-10 OVMax= 1.00D-05

 Cycle  14  Pass 1  IDiag  1:
 RMSU=  1.12D-08    CP:  9.53D-01  1.42D+00  9.30D-01  7.42D-01  9.11D-01
                    CP:  1.13D+00  1.43D+00  1.22D+00  1.31D+00  1.25D+00
                    CP:  1.13D+00  1.34D+00  1.07D+00
 E= -1910.41814407809     Delta-E=       -0.000000000251 Rises=F Damp=F
 DIIS: error= 8.32D-08 at cycle  14 NSaved=  14.
 NSaved=14 IEnMin=14 EnMin= -1910.41814407809     IErMin=14 ErrMin= 8.32D-08
 ErrMax= 8.32D-08  0.00D+00 EMaxC= 1.00D-01 BMatC= 1.47D-11 BMatP= 8.93D-11
 IDIUse=1 WtCom= 1.00D+00 WtEn= 0.00D+00
 Coeff-Com:  0.395D-05-0.872D-05-0.312D-04-0.593D-04-0.812D-04 0.158D-03
 Coeff-Com:  0.124D-02 0.305D-02-0.301D-02-0.253D-01-0.413D-01 0.469D-02
 Coeff-Com:  0.260D+00 0.801D+00
 Coeff:      0.395D-05-0.872D-05-0.312D-04-0.593D-04-0.812D-04 0.158D-03
 Coeff:      0.124D-02 0.305D-02-0.301D-02-0.253D-01-0.413D-01 0.469D-02
 Coeff:      0.260D+00 0.801D+00
 Gap=     0.138 Goal=   None    Shift=    0.000
 RMSDP=1.07D-08 MaxDP=3.20D-06 DE=-2.51D-10 OVMax= 8.05D-06

 Cycle  15  Pass 1  IDiag  1:
 RMSU=  5.26D-09    CP:  9.53D-01  1.42D+00  9.30D-01  7.42D-01  9.11D-01
                    CP:  1.13D+00  1.43D+00  1.22D+00  1.31D+00  1.25D+00
                    CP:  1.16D+00  1.43D+00  1.29D+00  1.18D+00
 E= -1910.41814407799     Delta-E=        0.000000000096 Rises=F Damp=F
 DIIS: error= 5.07D-08 at cycle  15 NSaved=  15.
 NSaved=15 IEnMin=14 EnMin= -1910.41814407809     IErMin=15 ErrMin= 5.07D-08
 ErrMax= 5.07D-08  0.00D+00 EMaxC= 1.00D-01 BMatC= 3.43D-12 BMatP= 1.47D-11
 IDIUse=1 WtCom= 1.00D+00 WtEn= 0.00D+00
 Coeff-Com:  0.274D-06-0.442D-06-0.653D-05-0.186D-04-0.531D-04-0.140D-03
 Coeff-Com: -0.493D-04 0.110D-02 0.483D-02-0.699D-03-0.245D-01-0.100D+00
 Coeff-Com: -0.878D-01 0.314D+00 0.893D+00
 Coeff:      0.274D-06-0.442D-06-0.653D-05-0.186D-04-0.531D-04-0.140D-03
 Coeff:     -0.493D-04 0.110D-02 0.483D-02-0.699D-03-0.245D-01-0.100D+00
 Coeff:     -0.878D-01 0.314D+00 0.893D+00
 Gap=     0.138 Goal=   None    Shift=    0.000
 RMSDP=5.97D-09 MaxDP=6.57D-07 DE= 9.64D-11 OVMax= 6.01D-06

 Error on total polarization charges =  0.02590
 SCF Done:  E(RM062X) =  -1910.41814408     A.U. after   15 cycles
            NFock= 15  Conv=0.60D-08     -V/T= 2.0056
 KE= 1.899851923790D+03 PE=-1.427446482516D+04 EE= 5.548626379021D+03
 Leave Link  502 at Fri Nov  7 03:22:51 2025, MaxMem= 30870077440 cpu:           64343.4 elap:            1021.8
 (Enter /public/software/gauss/g16/l601.exe)
 Copying SCF densities to generalized density rwf, IOpCl= 0 IROHF=0.

 **********************************************************************

            Population analysis using the SCF density.

 **********************************************************************

 Orbital symmetries:
       Occupied  (A) (A) (A) (A) (A) (A) (A) (A) (A) (A) (A) (A)
                 (A) (A) (A) (A) (A) (A) (A) (A) (A) (A) (A) (A)
                 (A) (A) (A) (A) (A) (A) (A) (A) (A) (A) (A) (A)
                 (A) (A) (A) (A) (A) (A) (A) (A) (A) (A) (A) (A)
                 (A) (A) (A) (A) (A) (A) (A) (A) (A) (A) (A) (A)
                 (A) (A) (A) (A) (A) (A) (A) (A) (A) (A) (A) (A)
                 (A) (A) (A) (A) (A) (A) (A) (A) (A) (A) (A) (A)
                 (A) (A) (A) (A) (A) (A) (A) (A) (A) (A) (A) (A)
                 (A) (A) (A) (A) (A) (A) (A) (A) (A) (A) (A) (A)
                 (A) (A) (A) (A) (A) (A) (A) (A) (A) (A) (A) (A)
                 (A) (A) (A) (A) (A) (A) (A) (A) (A) (A) (A) (A)
                 (A) (A) (A) (A) (A) (A) (A) (A) (A) (A) (A) (A)
                 (A) (A) (A) (A) (A) (A) (A) (A) (A) (A) (A)
       Virtual   (A) (A) (A) (A) (A) (A) (A) (A) (A) (A) (A) (A)
                 (A) (A) (A) (A) (A) (A) (A) (A) (A) (A) (A) (A)
                 (A) (A) (A) (A) (A) (A) (A) (A) (A) (A) (A) (A)
                 (A) (A) (A) (A) (A) (A) (A) (A) (A) (A) (A) (A)
                 (A) (A) (A) (A) (A) (A) (A) (A) (A) (A) (A) (A)
                 (A) (A) (A) (A) (A) (A) (A) (A) (A) (A) (A) (A)
                 (A) (A) (A) (A) (A) (A) (A) (A) (A) (A) (A) (A)
                 (A) (A) (A) (A) (A) (A) (A) (A) (A) (A) (A) (A)
                 (A) (A) (A) (A) (A) (A) (A) (A) (A) (A) (A) (A)
                 (A) (A) (A) (A) (A) (A) (A) (A) (A) (A) (A) (A)
                 (A) (A) (A) (A) (A) (A) (A) (A) (A) (A) (A) (A)
                 (A) (A) (A) (A) (A) (A) (A) (A) (A) (A) (A) (A)
                 (A) (A) (A) (A) (A) (A) (A) (A) (A) (A) (A) (A)
                 (A) (A) (A) (A) (A) (A) (A) (A) (A) (A) (A) (A)
                 (A) (A) (A) (A) (A) (A) (A) (A) (A) (A) (A) (A)
                 (A) (A) (A) (A) (A) (A) (A) (A) (A) (A) (A) (A)
                 (A) (A) (A) (A) (A) (A) (A) (A) (A) (A) (A) (A)
                 (A) (A) (A) (A) (A) (A) (A) (A) (A) (A) (A) (A)
                 (A) (A) (A) (A) (A) (A) (A) (A) (A) (A) (A) (A)
                 (A) (A) (A) (A) (A) (A) (A) (A) (A) (A) (A) (A)
                 (A) (A) (A) (A) (A) (A) (A) (A) (A) (A) (A) (A)
                 (A) (A) (A) (A) (A) (A) (A) (A) (A) (A) (A) (A)
                 (A) (A) (A) (A) (A) (A) (A) (A) (A) (A) (A) (A)
                 (A) (A) (A) (A) (A) (A) (A) (A) (A) (A) (A) (A)
                 (A) (A) (A) (A) (A) (A) (A) (A) (A) (A) (A) (A)
                 (A) (A) (A) (A) (A) (A) (A) (A) (A) (A) (A) (A)
                 (A) (A) (A) (A) (A) (A) (A) (A) (A) (A) (A) (A)
                 (A) (A) (A) (A) (A) (A) (A) (A) (A) (A) (A) (A)
                 (A) (A) (A) (A) (A) (A) (A) (A) (A) (A) (A) (A)
                 (A) (A) (A) (A) (A) (A) (A) (A) (A) (A) (A) (A)
                 (A) (A) (A) (A) (A) (A) (A) (A) (A) (A) (A) (A)
                 (A) (A) (A) (A) (A) (A) (A) (A) (A) (A) (A) (A)
                 (A) (A) (A) (A) (A) (A) (A) (A) (A) (A) (A) (A)
                 (A) (A) (A) (A) (A) (A) (A) (A) (A) (A) (A) (A)
                 (A) (A) (A) (A) (A) (A) (A) (A) (A) (A) (A) (A)
                 (A) (A) (A) (A) (A) (A) (A) (A) (A) (A) (A) (A)
                 (A) (A) (A) (A) (A) (A) (A) (A) (A) (A) (A) (A)
                 (A) (A) (A) (A) (A) (A) (A) (A) (A) (A) (A) (A)
                 (A) (A) (A) (A) (A) (A) (A) (A) (A) (A) (A) (A)
                 (A) (A) (A) (A) (A) (A) (A) (A) (A) (A) (A) (A)
                 (A) (A) (A) (A) (A) (A) (A) (A) (A) (A) (A) (A)
                 (A) (A) (A) (A) (A) (A) (A) (A) (A) (A) (A) (A)
                 (A) (A) (A) (A) (A) (A) (A) (A) (A) (A) (A) (A)
                 (A) (A) (A) (A) (A) (A) (A) (A) (A) (A) (A) (A)
                 (A) (A) (A) (A) (A) (A) (A) (A) (A) (A) (A) (A)
                 (A) (A) (A) (A) (A) (A) (A) (A) (A) (A) (A) (A)
                 (A) (A) (A) (A) (A) (A) (A) (A) (A) (A) (A) (A)
                 (A) (A) (A) (A) (A) (A) (A) (A) (A) (A) (A) (A)
                 (A) (A) (A) (A) (A) (A) (A) (A) (A) (A) (A) (A)
                 (A) (A) (A) (A) (A) (A) (A) (A) (A) (A) (A) (A)
                 (A) (A) (A) (A) (A) (A) (A) (A) (A) (A) (A) (A)
                 (A) (A) (A) (A) (A) (A) (A) (A) (A) (A) (A) (A)
                 (A) (A) (A) (A) (A) (A) (A) (A) (A) (A) (A) (A)
                 (A) (A) (A) (A) (A) (A) (A) (A) (A) (A) (A) (A)
                 (A) (A) (A) (A) (A) (A) (A) (A) (A) (A) (A) (A)
                 (A) (A) (A) (A) (A) (A) (A) (A) (A) (A) (A) (A)
                 (A) (A) (A) (A) (A) (A) (A) (A) (A) (A) (A) (A)
                 (A) (A) (A) (A) (A) (A) (A) (A) (A) (A) (A) (A)
                 (A) (A) (A) (A) (A) (A) (A) (A) (A) (A) (A) (A)
                 (A) (A) (A) (A) (A) (A) (A) (A) (A) (A) (A) (A)
                 (A) (A) (A) (A) (A) (A) (A) (A) (A) (A) (A) (A)
                 (A) (A) (A) (A) (A) (A) (A) (A) (A) (A) (A) (A)
                 (A) (A) (A) (A) (A) (A) (A) (A) (A) (A) (A) (A)
                 (A) (A) (A) (A) (A) (A) (A) (A) (A) (A) (A) (A)
                 (A) (A) (A) (A) (A) (A) (A) (A) (A) (A) (A) (A)
                 (A) (A) (A) (A) (A) (A) (A) (A) (A) (A) (A) (A)
                 (A) (A) (A) (A) (A) (A) (A) (A) (A) (A) (A) (A)
                 (A) (A) (A) (A) (A) (A) (A) (A) (A) (A) (A) (A)
                 (A) (A) (A) (A) (A) (A) (A) (A) (A) (A) (A) (A)
                 (A) (A) (A) (A) (A) (A) (A) (A) (A) (A) (A) (A)
                 (A) (A) (A) (A) (A) (A) (A) (A) (A) (A) (A) (A)
                 (A) (A) (A) (A) (A) (A) (A) (A) (A) (A) (A) (A)
                 (A) (A) (A) (A) (A) (A) (A) (A) (A) (A) (A) (A)
                 (A) (A) (A) (A) (A) (A) (A) (A) (A) (A) (A) (A)
                 (A) (A) (A) (A) (A) (A) (A) (A) (A) (A) (A) (A)
                 (A) (A) (A) (A) (A) (A) (A) (A) (A) (A) (A) (A)
                 (A) (A) (A) (A) (A) (A) (A) (A) (A) (A) (A) (A)
                 (A) (A) (A) (A) (A) (A) (A) (A) (A) (A) (A) (A)
                 (A) (A) (A) (A) (A) (A) (A) (A) (A) (A) (A) (A)
                 (A) (A) (A) (A) (A) (A) (A) (A) (A) (A) (A) (A)
                 (A) (A) (A) (A) (A) (A) (A) (A) (A) (A) (A) (A)
                 (A) (A) (A) (A) (A) (A) (A) (A) (A) (A) (A) (A)
                 (A) (A) (A) (A) (A) (A) (A) (A) (A) (A) (A) (A)
                 (A) (A) (A) (A) (A) (A) (A) (A) (A) (A) (A) (A)
                 (A) (A) (A) (A) (A) (A) (A) (A) (A) (A) (A) (A)
                 (A) (A) (A) (A) (A) (A) (A) (A) (A) (A) (A) (A)
                 (A) (A) (A) (A) (A) (A) (A) (A) (A) (A) (A) (A)
                 (A) (A) (A) (A) (A) (A) (A) (A) (A) (A) (A) (A)
                 (A) (A) (A) (A) (A) (A) (A) (A) (A) (A) (A) (A)
                 (A) (A) (A) (A) (A) (A) (A) (A) (A) (A) (A) (A)
                 (A) (A) (A) (A) (A) (A) (A) (A) (A) (A) (A) (A)
                 (A) (A) (A) (A) (A) (A) (A) (A) (A) (A) (A) (A)
                 (A) (A) (A) (A) (A) (A) (A) (A) (A) (A) (A) (A)
                 (A) (A) (A) (A) (A) (A) (A) (A) (A) (A) (A) (A)
                 (A) (A) (A) (A) (A) (A) (A) (A) (A) (A) (A) (A)
                 (A) (A) (A) (A) (A) (A) (A) (A) (A) (A) (A) (A)
                 (A) (A) (A) (A) (A) (A) (A) (A) (A) (A) (A) (A)
                 (A) (A) (A) (A) (A) (A) (A) (A) (A) (A) (A) (A)
                 (A) (A) (A) (A) (A) (A) (A) (A) (A) (A) (A) (A)
                 (A) (A) (A) (A) (A) (A) (A) (A) (A) (A) (A) (A)
                 (A) (A) (A) (A) (A) (A) (A) (A) (A) (A) (A) (A)
                 (A) (A) (A) (A) (A) (A) (A) (A) (A) (A) (A) (A)
                 (A) (A) (A) (A) (A) (A) (A) (A) (A) (A) (A) (A)
                 (A) (A) (A) (A) (A) (A) (A) (A) (A) (A) (A) (A)
                 (A) (A) (A) (A) (A) (A) (A) (A) (A) (A) (A) (A)
                 (A) (A) (A) (A) (A) (A) (A) (A) (A) (A) (A) (A)
                 (A) (A) (A) (A) (A) (A) (A) (A) (A) (A) (A) (A)
                 (A) (A) (A) (A) (A) (A) (A) (A) (A) (A) (A) (A)
                 (A) (A) (A) (A) (A) (A) (A) (A) (A) (A) (A) (A)
                 (A) (A) (A) (A) (A) (A) (A) (A) (A) (A) (A) (A)
                 (A) (A) (A) (A) (A) (A) (A) (A) (A) (A) (A) (A)
                 (A) (A) (A) (A) (A) (A) (A) (A) (A) (A) (A) (A)
                 (A) (A) (A) (A) (A) (A) (A) (A) (A) (A) (A) (A)
                 (A) (A) (A) (A) (A) (A) (A) (A) (A) (A) (A) (A)
                 (A) (A) (A) (A) (A) (A) (A) (A) (A) (A) (A) (A)
                 (A) (A) (A) (A) (A) (A) (A) (A) (A) (A) (A) (A)
                 (A) (A) (A) (A) (A) (A) (A) (A) (A) (A) (A) (A)
                 (A) (A) (A) (A) (A) (A) (A) (A) (A) (A) (A) (A)
                 (A) (A) (A) (A) (A) (A) (A) (A) (A) (A) (A) (A)
                 (A) (A) (A) (A) (A) (A) (A) (A) (A) (A) (A) (A)
                 (A) (A) (A) (A) (A) (A) (A) (A) (A) (A) (A) (A)
                 (A) (A) (A) (A) (A) (A) (A) (A) (A) (A) (A) (A)
                 (A) (A) (A) (A) (A) (A) (A) (A) (A) (A) (A) (A)
                 (A) (A) (A) (A) (A) (A) (A) (A) (A) (A) (A) (A)
                 (A) (A) (A) (A) (A) (A) (A) (A) (A) (A) (A) (A)
                 (A) (A) (A) (A) (A) (A) (A) (A) (A) (A) (A) (A)
                 (A) (A) (A) (A) (A) (A) (A) (A) (A) (A) (A) (A)
                 (A) (A) (A) (A) (A) (A) (A) (A) (A) (A) (A) (A)
                 (A) (A) (A) (A) (A) (A) (A) (A) (A) (A) (A) (A)
                 (A) (A) (A) (A) (A) (A) (A) (A) (A) (A) (A) (A)
                 (A) (A) (A) (A) (A) (A) (A) (A) (A) (A) (A) (A)
                 (A) (A) (A) (A) (A) (A) (A) (A) (A) (A) (A) (A)
                 (A) (A) (A) (A) (A) (A) (A) (A) (A) (A) (A) (A)
                 (A) (A) (A) (A) (A) (A) (A) (A) (A) (A) (A) (A)
                 (A) (A) (A) (A) (A) (A) (A) (A) (A) (A) (A) (A)
                 (A) (A) (A) (A) (A) (A) (A) (A) (A) (A) (A) (A)
                 (A) (A) (A) (A) (A) (A) (A) (A) (A) (A) (A) (A)
                 (A) (A) (A) (A) (A) (A) (A) (A) (A) (A) (A) (A)
                 (A) (A) (A) (A) (A) (A) (A) (A) (A) (A) (A) (A)
                 (A) (A) (A) (A) (A) (A)
 The electronic state is 1-A.
 Alpha  occ. eigenvalues --  -25.20805 -25.20759 -14.78989 -14.78981 -14.77030
 Alpha  occ. eigenvalues --  -14.76962 -10.60951 -10.60650 -10.60442 -10.59880
 Alpha  occ. eigenvalues --  -10.59818 -10.59811 -10.59694 -10.59388 -10.59340
 Alpha  occ. eigenvalues --  -10.58267 -10.58070 -10.57568 -10.57555 -10.57469
 Alpha  occ. eigenvalues --  -10.57464 -10.57448 -10.57259 -10.57135 -10.56894
 Alpha  occ. eigenvalues --  -10.56774 -10.56768 -10.56701 -10.56607 -10.56525
 Alpha  occ. eigenvalues --  -10.56503 -10.56313 -10.56292 -10.56138 -10.55816
 Alpha  occ. eigenvalues --  -10.54795 -10.54485 -10.54218 -10.54203 -10.54193
 Alpha  occ. eigenvalues --  -10.54115 -10.53738 -10.53699 -10.53439  -7.13600
 Alpha  occ. eigenvalues --   -1.32745  -1.29500  -1.11008  -1.09063  -1.03036
 Alpha  occ. eigenvalues --   -1.02969  -0.99204  -0.99037  -0.98475  -0.94218
 Alpha  occ. eigenvalues --   -0.92942  -0.92198  -0.91390  -0.90681  -0.88793
 Alpha  occ. eigenvalues --   -0.88445  -0.88029  -0.87096  -0.86961  -0.85976
 Alpha  occ. eigenvalues --   -0.82365  -0.81599  -0.79753  -0.79563  -0.78856
 Alpha  occ. eigenvalues --   -0.77487  -0.76583  -0.75415  -0.72229  -0.71892
 Alpha  occ. eigenvalues --   -0.71554  -0.70508  -0.68971  -0.67066  -0.66679
 Alpha  occ. eigenvalues --   -0.66302  -0.64599  -0.64508  -0.64082  -0.63716
 Alpha  occ. eigenvalues --   -0.63145  -0.61945  -0.60263  -0.58863  -0.58663
 Alpha  occ. eigenvalues --   -0.58040  -0.56795  -0.56445  -0.56334  -0.55305
 Alpha  occ. eigenvalues --   -0.54480  -0.53491  -0.53236  -0.53144  -0.52432
 Alpha  occ. eigenvalues --   -0.52267  -0.52041  -0.51656  -0.51118  -0.50936
 Alpha  occ. eigenvalues --   -0.50662  -0.50279  -0.50020  -0.49863  -0.49002
 Alpha  occ. eigenvalues --   -0.48853  -0.48821  -0.48548  -0.48238  -0.48088
 Alpha  occ. eigenvalues --   -0.48019  -0.47779  -0.47547  -0.47369  -0.47322
 Alpha  occ. eigenvalues --   -0.46983  -0.46907  -0.46477  -0.46399  -0.46148
 Alpha  occ. eigenvalues --   -0.45576  -0.44986  -0.44780  -0.44484  -0.44156
 Alpha  occ. eigenvalues --   -0.44099  -0.43894  -0.43710  -0.43169  -0.43103
 Alpha  occ. eigenvalues --   -0.42546  -0.42496  -0.41487  -0.40813  -0.40729
 Alpha  occ. eigenvalues --   -0.40678  -0.39883  -0.39654  -0.39249  -0.38314
 Alpha  occ. eigenvalues --   -0.35312  -0.33559  -0.33446  -0.32478  -0.32036
 Alpha  occ. eigenvalues --   -0.31721  -0.29987  -0.29733  -0.29239  -0.24295
 Alpha virt. eigenvalues --   -0.10484  -0.05788  -0.03825  -0.00252  -0.00159
 Alpha virt. eigenvalues --    0.00728   0.01360   0.02016   0.02899   0.04869
 Alpha virt. eigenvalues --    0.05891   0.06126   0.06426   0.07074   0.07403
 Alpha virt. eigenvalues --    0.07508   0.07871   0.08210   0.08316   0.08862
 Alpha virt. eigenvalues --    0.08949   0.09204   0.09376   0.10273   0.10717
 Alpha virt. eigenvalues --    0.10915   0.11096   0.11598   0.11772   0.11997
 Alpha virt. eigenvalues --    0.12007   0.12283   0.12526   0.12998   0.13239
 Alpha virt. eigenvalues --    0.13485   0.13655   0.13856   0.14114   0.14229
 Alpha virt. eigenvalues --    0.14660   0.15115   0.15198   0.15544   0.15722
 Alpha virt. eigenvalues --    0.15929   0.16084   0.16520   0.16615   0.16901
 Alpha virt. eigenvalues --    0.17264   0.17617   0.17662   0.17809   0.17889
 Alpha virt. eigenvalues --    0.18339   0.18562   0.19015   0.19101   0.19482
 Alpha virt. eigenvalues --    0.19888   0.20221   0.20387   0.20728   0.21023
 Alpha virt. eigenvalues --    0.21123   0.21393   0.21654   0.21972   0.22305
 Alpha virt. eigenvalues --    0.22474   0.22645   0.23029   0.23270   0.23432
 Alpha virt. eigenvalues --    0.23721   0.23862   0.24010   0.24318   0.24908
 Alpha virt. eigenvalues --    0.24968   0.25282   0.25467   0.25927   0.26169
 Alpha virt. eigenvalues --    0.26262   0.26464   0.26577   0.26645   0.26843
 Alpha virt. eigenvalues --    0.27146   0.27587   0.27801   0.27845   0.28049
 Alpha virt. eigenvalues --    0.28087   0.28192   0.28337   0.28679   0.28856
 Alpha virt. eigenvalues --    0.29226   0.29380   0.29494   0.29709   0.30325
 Alpha virt. eigenvalues --    0.30485   0.30967   0.31070   0.31431   0.31501
 Alpha virt. eigenvalues --    0.31913   0.32111   0.32252   0.32417   0.32514
 Alpha virt. eigenvalues --    0.32745   0.32956   0.33171   0.33319   0.33676
 Alpha virt. eigenvalues --    0.33711   0.34259   0.34361   0.34790   0.34990
 Alpha virt. eigenvalues --    0.35037   0.35581   0.35729   0.35898   0.35999
 Alpha virt. eigenvalues --    0.36153   0.36637   0.36763   0.36861   0.36913
 Alpha virt. eigenvalues --    0.37271   0.37533   0.37688   0.37913   0.38360
 Alpha virt. eigenvalues --    0.38439   0.38600   0.38805   0.38943   0.39159
 Alpha virt. eigenvalues --    0.39311   0.39617   0.39678   0.39880   0.40234
 Alpha virt. eigenvalues --    0.40506   0.40611   0.40846   0.41027   0.41365
 Alpha virt. eigenvalues --    0.41455   0.41513   0.41811   0.41958   0.42403
 Alpha virt. eigenvalues --    0.42445   0.42746   0.43179   0.43393   0.43528
 Alpha virt. eigenvalues --    0.43869   0.44196   0.44345   0.44594   0.44673
 Alpha virt. eigenvalues --    0.45018   0.45330   0.45557   0.45659   0.45900
 Alpha virt. eigenvalues --    0.46060   0.46199   0.46546   0.46660   0.47171
 Alpha virt. eigenvalues --    0.47250   0.47383   0.47812   0.48200   0.48367
 Alpha virt. eigenvalues --    0.48808   0.48908   0.49141   0.49308   0.49507
 Alpha virt. eigenvalues --    0.50044   0.50135   0.50239   0.50711   0.50995
 Alpha virt. eigenvalues --    0.51096   0.51149   0.51433   0.51568   0.51744
 Alpha virt. eigenvalues --    0.51974   0.52041   0.52401   0.52722   0.52836
 Alpha virt. eigenvalues --    0.52990   0.53157   0.53403   0.53742   0.53811
 Alpha virt. eigenvalues --    0.53967   0.54391   0.54471   0.54909   0.55352
 Alpha virt. eigenvalues --    0.55607   0.55726   0.56045   0.56411   0.56633
 Alpha virt. eigenvalues --    0.57012   0.57510   0.57703   0.57852   0.57996
 Alpha virt. eigenvalues --    0.58265   0.58377   0.58919   0.59090   0.59568
 Alpha virt. eigenvalues --    0.59586   0.60045   0.60286   0.60511   0.60827
 Alpha virt. eigenvalues --    0.61221   0.61508   0.61554   0.61845   0.62239
 Alpha virt. eigenvalues --    0.62582   0.62814   0.63128   0.63381   0.63891
 Alpha virt. eigenvalues --    0.64066   0.64177   0.64490   0.64844   0.64928
 Alpha virt. eigenvalues --    0.65167   0.65572   0.65870   0.65897   0.66106
 Alpha virt. eigenvalues --    0.66181   0.66756   0.66928   0.67191   0.67420
 Alpha virt. eigenvalues --    0.67557   0.67845   0.68256   0.68526   0.68723
 Alpha virt. eigenvalues --    0.68919   0.68951   0.69192   0.69267   0.69541
 Alpha virt. eigenvalues --    0.69746   0.70042   0.70149   0.70516   0.70984
 Alpha virt. eigenvalues --    0.71325   0.71722   0.71879   0.72083   0.72452
 Alpha virt. eigenvalues --    0.72673   0.72824   0.73421   0.73482   0.73781
 Alpha virt. eigenvalues --    0.74253   0.74649   0.74709   0.74944   0.75413
 Alpha virt. eigenvalues --    0.75472   0.75998   0.76052   0.76643   0.76900
 Alpha virt. eigenvalues --    0.77156   0.77308   0.77650   0.78104   0.78278
 Alpha virt. eigenvalues --    0.78547   0.78821   0.79132   0.79275   0.79646
 Alpha virt. eigenvalues --    0.79770   0.80214   0.80411   0.80626   0.80814
 Alpha virt. eigenvalues --    0.81348   0.81636   0.82099   0.82141   0.82589
 Alpha virt. eigenvalues --    0.82798   0.83239   0.83328   0.83601   0.83806
 Alpha virt. eigenvalues --    0.84176   0.84281   0.84423   0.84831   0.85051
 Alpha virt. eigenvalues --    0.85329   0.85975   0.86231   0.86505   0.86866
 Alpha virt. eigenvalues --    0.86909   0.87465   0.87973   0.88313   0.88497
 Alpha virt. eigenvalues --    0.88720   0.89137   0.89696   0.89871   0.90130
 Alpha virt. eigenvalues --    0.90526   0.90730   0.91324   0.91527   0.91976
 Alpha virt. eigenvalues --    0.92331   0.92978   0.93198   0.93696   0.93731
 Alpha virt. eigenvalues --    0.94293   0.94607   0.94891   0.95105   0.95361
 Alpha virt. eigenvalues --    0.95887   0.96122   0.96507   0.96750   0.97385
 Alpha virt. eigenvalues --    0.97476   0.97931   0.98157   0.98445   0.98565
 Alpha virt. eigenvalues --    0.98696   0.99613   0.99812   0.99930   1.00112
 Alpha virt. eigenvalues --    1.00252   1.00431   1.00507   1.01033   1.01551
 Alpha virt. eigenvalues --    1.01616   1.01833   1.02032   1.02520   1.02777
 Alpha virt. eigenvalues --    1.03002   1.03229   1.03417   1.03596   1.03724
 Alpha virt. eigenvalues --    1.04039   1.04299   1.04461   1.04627   1.05016
 Alpha virt. eigenvalues --    1.05028   1.05502   1.05936   1.06566   1.06905
 Alpha virt. eigenvalues --    1.07313   1.07763   1.07904   1.08115   1.08344
 Alpha virt. eigenvalues --    1.08682   1.09036   1.09157   1.09491   1.09819
 Alpha virt. eigenvalues --    1.09907   1.10301   1.11094   1.11523   1.11569
 Alpha virt. eigenvalues --    1.11732   1.12179   1.12365   1.12652   1.12897
 Alpha virt. eigenvalues --    1.13300   1.13416   1.13715   1.14072   1.14397
 Alpha virt. eigenvalues --    1.14784   1.14842   1.14909   1.15233   1.15520
 Alpha virt. eigenvalues --    1.16034   1.16143   1.16483   1.16927   1.17126
 Alpha virt. eigenvalues --    1.17848   1.18194   1.18597   1.19033   1.19159
 Alpha virt. eigenvalues --    1.19552   1.19680   1.20089   1.20337   1.20656
 Alpha virt. eigenvalues --    1.20801   1.20884   1.21705   1.21953   1.22152
 Alpha virt. eigenvalues --    1.22635   1.22749   1.22969   1.23367   1.23589
 Alpha virt. eigenvalues --    1.23682   1.23897   1.24085   1.24382   1.24816
 Alpha virt. eigenvalues --    1.25355   1.25426   1.26013   1.26365   1.26647
 Alpha virt. eigenvalues --    1.26705   1.27171   1.27518   1.27768   1.27820
 Alpha virt. eigenvalues --    1.28163   1.28447   1.28909   1.29107   1.29472
 Alpha virt. eigenvalues --    1.29801   1.29816   1.30092   1.30253   1.30454
 Alpha virt. eigenvalues --    1.30673   1.31108   1.31615   1.31812   1.32065
 Alpha virt. eigenvalues --    1.33188   1.33424   1.33765   1.33900   1.34390
 Alpha virt. eigenvalues --    1.34791   1.34951   1.35249   1.35617   1.36235
 Alpha virt. eigenvalues --    1.36624   1.36726   1.37093   1.37321   1.37486
 Alpha virt. eigenvalues --    1.37821   1.38219   1.38276   1.38507   1.38894
 Alpha virt. eigenvalues --    1.39545   1.39900   1.40011   1.40286   1.40519
 Alpha virt. eigenvalues --    1.41178   1.41442   1.42005   1.42644   1.42967
 Alpha virt. eigenvalues --    1.43473   1.43544   1.44292   1.44361   1.44522
 Alpha virt. eigenvalues --    1.44728   1.44870   1.44988   1.45302   1.45360
 Alpha virt. eigenvalues --    1.45576   1.45754   1.45818   1.45990   1.46250
 Alpha virt. eigenvalues --    1.46624   1.46972   1.47412   1.47996   1.48117
 Alpha virt. eigenvalues --    1.48939   1.49414   1.50006   1.50285   1.50581
 Alpha virt. eigenvalues --    1.50792   1.51076   1.51239   1.51542   1.51852
 Alpha virt. eigenvalues --    1.52224   1.52404   1.52593   1.52967   1.53021
 Alpha virt. eigenvalues --    1.53634   1.53827   1.54079   1.54210   1.54473
 Alpha virt. eigenvalues --    1.54866   1.55128   1.55207   1.55426   1.55969
 Alpha virt. eigenvalues --    1.56091   1.56621   1.56815   1.57033   1.57234
 Alpha virt. eigenvalues --    1.57720   1.57736   1.58065   1.58353   1.58414
 Alpha virt. eigenvalues --    1.58627   1.58880   1.59243   1.59364   1.59545
 Alpha virt. eigenvalues --    1.59942   1.60288   1.60395   1.60917   1.61301
 Alpha virt. eigenvalues --    1.61411   1.61522   1.62365   1.62619   1.62646
 Alpha virt. eigenvalues --    1.63373   1.63639   1.64071   1.64407   1.64834
 Alpha virt. eigenvalues --    1.65087   1.65696   1.66293   1.66797   1.67029
 Alpha virt. eigenvalues --    1.67062   1.67119   1.67427   1.67512   1.67656
 Alpha virt. eigenvalues --    1.68069   1.68238   1.68348   1.69699   1.70117
 Alpha virt. eigenvalues --    1.70719   1.70918   1.71675   1.71933   1.72223
 Alpha virt. eigenvalues --    1.72518   1.72911   1.74149   1.74261   1.74669
 Alpha virt. eigenvalues --    1.74774   1.75735   1.75850   1.76482   1.76820
 Alpha virt. eigenvalues --    1.77109   1.77693   1.78186   1.78252   1.78586
 Alpha virt. eigenvalues --    1.78864   1.79345   1.79815   1.80443   1.80801
 Alpha virt. eigenvalues --    1.81480   1.81866   1.82065   1.82851   1.83693
 Alpha virt. eigenvalues --    1.84063   1.84137   1.85142   1.85283   1.86520
 Alpha virt. eigenvalues --    1.86678   1.86773   1.87513   1.87854   1.88106
 Alpha virt. eigenvalues --    1.88219   1.88721   1.88960   1.89475   1.90062
 Alpha virt. eigenvalues --    1.90253   1.90669   1.90754   1.91720   1.91834
 Alpha virt. eigenvalues --    1.92086   1.92436   1.92830   1.93226   1.93480
 Alpha virt. eigenvalues --    1.94021   1.94244   1.94510   1.95079   1.95098
 Alpha virt. eigenvalues --    1.95644   1.96342   1.96537   1.97139   1.97491
 Alpha virt. eigenvalues --    1.98421   1.98640   1.99772   1.99922   2.00169
 Alpha virt. eigenvalues --    2.00843   2.01794   2.02571   2.02960   2.03325
 Alpha virt. eigenvalues --    2.04041   2.04121   2.04626   2.04760   2.05075
 Alpha virt. eigenvalues --    2.05645   2.05924   2.06308   2.07022   2.07183
 Alpha virt. eigenvalues --    2.07650   2.08048   2.08593   2.09502   2.09929
 Alpha virt. eigenvalues --    2.10074   2.10313   2.10479   2.10974   2.11534
 Alpha virt. eigenvalues --    2.12311   2.13192   2.13555   2.13984   2.14752
 Alpha virt. eigenvalues --    2.15082   2.16120   2.16906   2.17243   2.17671
 Alpha virt. eigenvalues --    2.18547   2.18793   2.20131   2.20566   2.20813
 Alpha virt. eigenvalues --    2.21892   2.21978   2.22614   2.24042   2.24644
 Alpha virt. eigenvalues --    2.25280   2.25520   2.26439   2.27425   2.27488
 Alpha virt. eigenvalues --    2.28196   2.28413   2.28797   2.29572   2.29946
 Alpha virt. eigenvalues --    2.30544   2.30947   2.31220   2.31899   2.32596
 Alpha virt. eigenvalues --    2.32806   2.33029   2.33757   2.34208   2.34611
 Alpha virt. eigenvalues --    2.35103   2.35311   2.36093   2.36376   2.37017
 Alpha virt. eigenvalues --    2.37132   2.37669   2.38152   2.38294   2.38784
 Alpha virt. eigenvalues --    2.39366   2.40073   2.40801   2.41451   2.41595
 Alpha virt. eigenvalues --    2.41989   2.42640   2.43076   2.43299   2.43621
 Alpha virt. eigenvalues --    2.43886   2.44703   2.45489   2.46587   2.47463
 Alpha virt. eigenvalues --    2.48267   2.48658   2.48718   2.48807   2.49332
 Alpha virt. eigenvalues --    2.50197   2.50757   2.51377   2.52171   2.52924
 Alpha virt. eigenvalues --    2.53358   2.54042   2.54232   2.54854   2.55131
 Alpha virt. eigenvalues --    2.55475   2.55863   2.56595   2.56702   2.57747
 Alpha virt. eigenvalues --    2.58001   2.59410   2.59879   2.60279   2.60527
 Alpha virt. eigenvalues --    2.60831   2.61165   2.61904   2.62213   2.62496
 Alpha virt. eigenvalues --    2.62833   2.63207   2.63342   2.63517   2.64133
 Alpha virt. eigenvalues --    2.64867   2.65262   2.65581   2.65836   2.66196
 Alpha virt. eigenvalues --    2.66403   2.66755   2.67447   2.67808   2.67841
 Alpha virt. eigenvalues --    2.68032   2.68638   2.69212   2.70061   2.70591
 Alpha virt. eigenvalues --    2.70959   2.71527   2.71635   2.72281   2.72881
 Alpha virt. eigenvalues --    2.73493   2.73913   2.74006   2.74155   2.74304
 Alpha virt. eigenvalues --    2.74566   2.74712   2.75262   2.75479   2.75669
 Alpha virt. eigenvalues --    2.76198   2.76250   2.76533   2.77104   2.77614
 Alpha virt. eigenvalues --    2.77890   2.78179   2.78627   2.78854   2.79277
 Alpha virt. eigenvalues --    2.79689   2.79752   2.80061   2.80331   2.80452
 Alpha virt. eigenvalues --    2.80550   2.81027   2.81320   2.81493   2.81869
 Alpha virt. eigenvalues --    2.82552   2.82899   2.83167   2.83500   2.84049
 Alpha virt. eigenvalues --    2.84365   2.84909   2.85064   2.85665   2.85815
 Alpha virt. eigenvalues --    2.86009   2.86185   2.86774   2.86906   2.87102
 Alpha virt. eigenvalues --    2.87378   2.87503   2.87662   2.87895   2.88309
 Alpha virt. eigenvalues --    2.88859   2.89053   2.89232   2.89510   2.89834
 Alpha virt. eigenvalues --    2.90090   2.90267   2.90547   2.90797   2.90946
 Alpha virt. eigenvalues --    2.91485   2.91720   2.91837   2.92139   2.92196
 Alpha virt. eigenvalues --    2.92346   2.92570   2.92650   2.92900   2.93236
 Alpha virt. eigenvalues --    2.93487   2.93593   2.93747   2.93856   2.94372
 Alpha virt. eigenvalues --    2.94682   2.94762   2.94884   2.95413   2.95731
 Alpha virt. eigenvalues --    2.96251   2.96379   2.97036   2.97253   2.97552
 Alpha virt. eigenvalues --    2.97760   2.98043   2.98644   2.98876   2.99050
 Alpha virt. eigenvalues --    2.99328   2.99695   2.99949   3.00216   3.00544
 Alpha virt. eigenvalues --    3.00621   3.01211   3.01341   3.01575   3.01686
 Alpha virt. eigenvalues --    3.01819   3.02228   3.02469   3.02656   3.02749
 Alpha virt. eigenvalues --    3.03269   3.03571   3.03680   3.04028   3.04142
 Alpha virt. eigenvalues --    3.04452   3.04667   3.04999   3.05391   3.05461
 Alpha virt. eigenvalues --    3.05942   3.06031   3.06473   3.06738   3.07077
 Alpha virt. eigenvalues --    3.07155   3.07459   3.07682   3.07850   3.08152
 Alpha virt. eigenvalues --    3.08413   3.08551   3.08900   3.09156   3.09198
 Alpha virt. eigenvalues --    3.09409   3.09636   3.10002   3.10237   3.10280
 Alpha virt. eigenvalues --    3.10815   3.11134   3.11727   3.11893   3.12099
 Alpha virt. eigenvalues --    3.12236   3.12428   3.12749   3.13200   3.13346
 Alpha virt. eigenvalues --    3.13612   3.13832   3.14156   3.14513   3.14752
 Alpha virt. eigenvalues --    3.14939   3.15123   3.15511   3.15931   3.16097
 Alpha virt. eigenvalues --    3.16595   3.16890   3.17114   3.17271   3.17667
 Alpha virt. eigenvalues --    3.17966   3.18305   3.18491   3.18631   3.18865
 Alpha virt. eigenvalues --    3.19315   3.19427   3.19908   3.19972   3.20471
 Alpha virt. eigenvalues --    3.20625   3.20737   3.21373   3.21663   3.21746
 Alpha virt. eigenvalues --    3.21986   3.22181   3.22576   3.22958   3.23286
 Alpha virt. eigenvalues --    3.23455   3.23695   3.24144   3.24412   3.24584
 Alpha virt. eigenvalues --    3.24656   3.25226   3.25294   3.25534   3.25982
 Alpha virt. eigenvalues --    3.26380   3.26762   3.27188   3.27599   3.28083
 Alpha virt. eigenvalues --    3.28461   3.28718   3.29009   3.29234   3.29772
 Alpha virt. eigenvalues --    3.30335   3.30684   3.31107   3.31264   3.31607
 Alpha virt. eigenvalues --    3.31846   3.32074   3.32413   3.32778   3.32943
 Alpha virt. eigenvalues --    3.33201   3.33384   3.33456   3.33752   3.34471
 Alpha virt. eigenvalues --    3.34706   3.34975   3.35350   3.35604   3.35808
 Alpha virt. eigenvalues --    3.36063   3.36177   3.36449   3.36992   3.37206
 Alpha virt. eigenvalues --    3.37437   3.37642   3.37925   3.38212   3.38309
 Alpha virt. eigenvalues --    3.38507   3.38776   3.39024   3.39534   3.39721
 Alpha virt. eigenvalues --    3.40055   3.40237   3.40328   3.40694   3.40927
 Alpha virt. eigenvalues --    3.41409   3.41599   3.41729   3.42141   3.42587
 Alpha virt. eigenvalues --    3.42800   3.43237   3.43574   3.43905   3.44237
 Alpha virt. eigenvalues --    3.44958   3.45573   3.45978   3.46289   3.46627
 Alpha virt. eigenvalues --    3.46774   3.47208   3.47280   3.47732   3.48285
 Alpha virt. eigenvalues --    3.48431   3.48816   3.49240   3.49313   3.49725
 Alpha virt. eigenvalues --    3.49936   3.50042   3.50489   3.50818   3.50941
 Alpha virt. eigenvalues --    3.51099   3.51513   3.52286   3.52500   3.52824
 Alpha virt. eigenvalues --    3.52839   3.53126   3.53249   3.53486   3.53844
 Alpha virt. eigenvalues --    3.54016   3.54121   3.54529   3.54711   3.55089
 Alpha virt. eigenvalues --    3.55389   3.55572   3.55980   3.56637   3.56718
 Alpha virt. eigenvalues --    3.57062   3.57559   3.58142   3.58327   3.58633
 Alpha virt. eigenvalues --    3.58787   3.59553   3.59700   3.60156   3.60257
 Alpha virt. eigenvalues --    3.60910   3.61295   3.61701   3.61923   3.62335
 Alpha virt. eigenvalues --    3.62623   3.63008   3.63489   3.63774   3.63882
 Alpha virt. eigenvalues --    3.63933   3.64416   3.64539   3.64964   3.65354
 Alpha virt. eigenvalues --    3.65676   3.66025   3.66384   3.66634   3.66973
 Alpha virt. eigenvalues --    3.67387   3.68079   3.68383   3.68745   3.68906
 Alpha virt. eigenvalues --    3.69418   3.69891   3.70028   3.70443   3.70740
 Alpha virt. eigenvalues --    3.71061   3.71200   3.71403   3.71908   3.72078
 Alpha virt. eigenvalues --    3.73218   3.73324   3.73374   3.73725   3.73998
 Alpha virt. eigenvalues --    3.74302   3.74676   3.74913   3.75442   3.76116
 Alpha virt. eigenvalues --    3.76551   3.76777   3.76936   3.77308   3.78513
 Alpha virt. eigenvalues --    3.79010   3.80056   3.80095   3.80496   3.80787
 Alpha virt. eigenvalues --    3.81734   3.82322   3.82347   3.82917   3.83291
 Alpha virt. eigenvalues --    3.83733   3.84153   3.84323   3.84542   3.84724
 Alpha virt. eigenvalues --    3.85054   3.85236   3.85487   3.85684   3.85834
 Alpha virt. eigenvalues --    3.86082   3.86409   3.87098   3.87109   3.87476
 Alpha virt. eigenvalues --    3.87613   3.87754   3.88205   3.88312   3.88588
 Alpha virt. eigenvalues --    3.88697   3.89054   3.89262   3.89342   3.89518
 Alpha virt. eigenvalues --    3.90045   3.90520   3.90600   3.91040   3.91154
 Alpha virt. eigenvalues --    3.91457   3.92028   3.92108   3.92936   3.93094
 Alpha virt. eigenvalues --    3.93500   3.93799   3.94270   3.94636   3.94945
 Alpha virt. eigenvalues --    3.95515   3.95918   3.95985   3.96247   3.96684
 Alpha virt. eigenvalues --    3.96735   3.97015   3.97446   3.97479   3.98179
 Alpha virt. eigenvalues --    3.98368   3.98986   3.99055   3.99140   3.99388
 Alpha virt. eigenvalues --    3.99844   4.00052   4.00364   4.00702   4.01136
 Alpha virt. eigenvalues --    4.01285   4.01617   4.02107   4.02361   4.02579
 Alpha virt. eigenvalues --    4.02828   4.03056   4.03450   4.04147   4.04341
 Alpha virt. eigenvalues --    4.04874   4.05143   4.05384   4.05820   4.06115
 Alpha virt. eigenvalues --    4.06521   4.06633   4.06837   4.07279   4.07422
 Alpha virt. eigenvalues --    4.07624   4.08221   4.08650   4.08775   4.09307
 Alpha virt. eigenvalues --    4.09533   4.09793   4.09993   4.10507   4.10961
 Alpha virt. eigenvalues --    4.11139   4.11433   4.11457   4.11683   4.12217
 Alpha virt. eigenvalues --    4.12626   4.13279   4.13534   4.14127   4.14202
 Alpha virt. eigenvalues --    4.14383   4.14909   4.15323   4.15492   4.16145
 Alpha virt. eigenvalues --    4.16344   4.16535   4.16569   4.16750   4.17215
 Alpha virt. eigenvalues --    4.17670   4.17870   4.18197   4.18510   4.18667
 Alpha virt. eigenvalues --    4.18788   4.19074   4.19739   4.19956   4.20478
 Alpha virt. eigenvalues --    4.20672   4.21095   4.21447   4.21760   4.21858
 Alpha virt. eigenvalues --    4.22321   4.22695   4.23031   4.23592   4.23821
 Alpha virt. eigenvalues --    4.24300   4.24327   4.24827   4.25453   4.25807
 Alpha virt. eigenvalues --    4.25946   4.26352   4.26556   4.26890   4.27463
 Alpha virt. eigenvalues --    4.27916   4.28484   4.28869   4.29376   4.29597
 Alpha virt. eigenvalues --    4.30247   4.30606   4.30910   4.31249   4.31785
 Alpha virt. eigenvalues --    4.32117   4.32373   4.32646   4.33148   4.33357
 Alpha virt. eigenvalues --    4.33678   4.34271   4.34612   4.35451   4.36074
 Alpha virt. eigenvalues --    4.36298   4.37002   4.37944   4.38185   4.38399
 Alpha virt. eigenvalues --    4.39211   4.39410   4.39872   4.40484   4.40671
 Alpha virt. eigenvalues --    4.41409   4.42281   4.42550   4.43332   4.44182
 Alpha virt. eigenvalues --    4.44597   4.44912   4.45090   4.46066   4.46481
 Alpha virt. eigenvalues --    4.47626   4.47869   4.48278   4.48639   4.48949
 Alpha virt. eigenvalues --    4.49423   4.49575   4.50777   4.51173   4.51559
 Alpha virt. eigenvalues --    4.51887   4.52213   4.52651   4.53052   4.53285
 Alpha virt. eigenvalues --    4.53655   4.54949   4.56553   4.56927   4.57222
 Alpha virt. eigenvalues --    4.57444   4.57489   4.58403   4.58555   4.59029
 Alpha virt. eigenvalues --    4.59215   4.59439   4.59735   4.60017   4.60349
 Alpha virt. eigenvalues --    4.61147   4.61311   4.61949   4.62577   4.63619
 Alpha virt. eigenvalues --    4.64648   4.65419   4.65764   4.66377   4.67350
 Alpha virt. eigenvalues --    4.67626   4.68454   4.68548   4.68640   4.69294
 Alpha virt. eigenvalues --    4.69518   4.69737   4.70144   4.70243   4.70521
 Alpha virt. eigenvalues --    4.71069   4.72116   4.73086   4.73406   4.73719
 Alpha virt. eigenvalues --    4.74077   4.74911   4.75466   4.75891   4.76653
 Alpha virt. eigenvalues --    4.77210   4.77577   4.78172   4.78221   4.78679
 Alpha virt. eigenvalues --    4.79978   4.80583   4.80985   4.81513   4.82222
 Alpha virt. eigenvalues --    4.82866   4.83313   4.84690   4.85173   4.85816
 Alpha virt. eigenvalues --    4.86707   4.87328   4.88301   4.88603   4.89462
 Alpha virt. eigenvalues --    4.90326   4.90979   4.91365   4.92123   4.92492
 Alpha virt. eigenvalues --    4.93268   4.93496   4.93817   4.94214   4.94462
 Alpha virt. eigenvalues --    4.95309   4.95495   4.95507   4.96355   4.96517
 Alpha virt. eigenvalues --    4.97754   4.98191   4.99163   4.99509   4.99831
 Alpha virt. eigenvalues --    5.00719   5.01870   5.02269   5.03084   5.03481
 Alpha virt. eigenvalues --    5.04000   5.04346   5.04446   5.05180   5.05495
 Alpha virt. eigenvalues --    5.06285   5.06840   5.07556   5.07833   5.08483
 Alpha virt. eigenvalues --    5.09291   5.09394   5.10285   5.10635   5.10911
 Alpha virt. eigenvalues --    5.11232   5.11611   5.12021   5.12362   5.13385
 Alpha virt. eigenvalues --    5.13648   5.13949   5.14751   5.15397   5.16479
 Alpha virt. eigenvalues --    5.16897   5.17032   5.17386   5.17864   5.18285
 Alpha virt. eigenvalues --    5.19421   5.20173   5.20634   5.21415   5.21643
 Alpha virt. eigenvalues --    5.21992   5.22378   5.22934   5.23466   5.24223
 Alpha virt. eigenvalues --    5.24381   5.24588   5.24676   5.25127   5.25601
 Alpha virt. eigenvalues --    5.26705   5.28167   5.28407   5.28864   5.29079
 Alpha virt. eigenvalues --    5.29853   5.30606   5.30767   5.31266   5.31891
 Alpha virt. eigenvalues --    5.32363   5.32752   5.33250   5.33939   5.34761
 Alpha virt. eigenvalues --    5.35149   5.35639   5.36411   5.36791   5.37726
 Alpha virt. eigenvalues --    5.38494   5.38850   5.39080   5.39374   5.39574
 Alpha virt. eigenvalues --    5.40401   5.41017   5.42365   5.42751   5.43387
 Alpha virt. eigenvalues --    5.43653   5.44398   5.45019   5.46764   5.47373
 Alpha virt. eigenvalues --    5.48023   5.49110   5.49433   5.51179   5.51641
 Alpha virt. eigenvalues --    5.51993   5.52866   5.54162   5.54695   5.55545
 Alpha virt. eigenvalues --    5.56777   5.57222   5.57806   5.58580   5.59039
 Alpha virt. eigenvalues --    5.59690   5.59855   5.60302   5.60889   5.61117
 Alpha virt. eigenvalues --    5.61607   5.62317   5.62337   5.62407   5.63363
 Alpha virt. eigenvalues --    5.64707   5.64908   5.65467   5.66117   5.66590
 Alpha virt. eigenvalues --    5.66942   5.67253   5.67979   5.68587   5.69604
 Alpha virt. eigenvalues --    5.73671   5.74963   5.77390   5.77509   5.77896
 Alpha virt. eigenvalues --    5.78193   5.79371   5.80617   5.82549   5.84502
 Alpha virt. eigenvalues --    5.87828   5.89261   5.92962   5.93703   5.95054
 Alpha virt. eigenvalues --    5.97207   6.02630   6.04619   6.05974   6.08316
 Alpha virt. eigenvalues --    6.09427   6.10047   6.15411   6.15904   6.18757
 Alpha virt. eigenvalues --    6.18922   6.34140   6.37707   6.58404   6.58902
 Alpha virt. eigenvalues --    6.93915   6.95176   6.97111   6.98700   6.99446
 Alpha virt. eigenvalues --    7.00234   7.04944   7.11331   7.17376   7.22178
 Alpha virt. eigenvalues --    7.24197   7.27181   7.33445   7.34670   8.46116
 Alpha virt. eigenvalues --    8.48101   8.56538   8.61172   8.82113   8.87698
 Alpha virt. eigenvalues --    8.90533   8.92440   8.93699   9.00849  15.87278
 Alpha virt. eigenvalues --   22.83455  22.84852  22.87107  22.94325  23.02405
 Alpha virt. eigenvalues --   23.12842  23.13528  23.16893  23.17592  23.19718
 Alpha virt. eigenvalues --   23.24215  23.25386  23.28565  23.28898  23.29171
 Alpha virt. eigenvalues --   23.29404  23.32237  23.33578  23.34816  23.35469
 Alpha virt. eigenvalues --   23.37652  23.39712  23.46500  23.54041  23.54752
 Alpha virt. eigenvalues --   23.60390  23.64778  23.65958  23.70764  23.73063
 Alpha virt. eigenvalues --   23.77139  23.79403  23.82699  23.87791  23.92342
 Alpha virt. eigenvalues --   24.18375  24.18712  24.22497  32.19805  32.19836
 Alpha virt. eigenvalues --   33.18065  33.30980  57.37745  57.58577
          Condensed to atoms (all electrons):
 Mulliken charges:
               1
     1  C   -0.372060
     2  C   -0.065336
     3  C    0.014808
     4  C   -0.194502
     5  C   -0.343107
     6  C    0.064103
     7  C    0.028982
     8  C    0.102942
     9  C   -0.053249
    10  C   -0.427606
    11  C   -0.053113
    12  C    0.006472
    13  C   -0.123684
    14  C   -0.052551
    15  C    0.027127
    16  C   -0.148527
    17  C   -0.130506
    18  C    0.107437
    19  C   -0.185799
    20  N   -0.081291
    21  C   -0.133225
    22  C   -0.122421
    23  N   -0.081853
    24  B    0.339130
    25  F   -0.343256
    26  F   -0.342498
    27  N   -0.098893
    28  C   -0.049335
    29  C   -0.067653
    30  C   -0.086664
    31  C    0.051907
    32  C   -0.154821
    33  C   -0.130992
    34  C    0.104144
    35  C   -0.185364
    36  N   -0.082961
    37  C   -0.133511
    38  C   -0.119822
    39  C   -0.051681
    40  C   -0.043738
    41  C   -0.425419
    42  C    0.109612
    43  C   -0.237145
    44  C   -0.327694
    45  C    0.023416
    46  H    0.120126
    47  H    0.143988
    48  H    0.131802
    49  H    0.126476
    50  H    0.143719
    51  H    0.119263
    52  H    0.139861
    53  H    0.163628
    54  H    0.134263
    55  H    0.161393
    56  H    0.168546
    57  H    0.133690
    58  H    0.119656
    59  H    0.153674
    60  H    0.168642
    61  H    0.170314
    62  H    0.150100
    63  H    0.105190
    64  H    0.127053
    65  H    0.159195
    66  H    0.167423
    67  H    0.169528
    68  H    0.148509
    69  H    0.164229
    70  H    0.162574
    71  H    0.160808
    72  H    0.133309
    73  H    0.120440
    74  H    0.137135
    75  H    0.140549
    76  H    0.125113
 Sum of Mulliken charges =  -0.00000
 Mulliken charges with hydrogens summed into heavy atoms:
               1
     1  C    0.023857
     2  C   -0.065336
     3  C    0.141284
     4  C   -0.194502
     5  C    0.059735
     6  C    0.064103
     7  C    0.028982
     8  C    0.102942
     9  C   -0.053249
    10  C    0.031678
    11  C    0.115433
    12  C    0.006472
    13  C    0.010007
    14  C    0.067105
    15  C    0.027127
    16  C    0.005146
    17  C    0.038136
    18  C    0.107437
    19  C   -0.185799
    20  N   -0.081291
    21  C    0.037089
    22  C    0.027679
    23  N   -0.081853
    24  B    0.339130
    25  F   -0.343256
    26  F   -0.342498
    27  N   -0.098893
    28  C   -0.049335
    29  C    0.037537
    30  C    0.040389
    31  C    0.051907
    32  C    0.004374
    33  C    0.036430
    34  C    0.104144
    35  C   -0.185364
    36  N   -0.082961
    37  C    0.036018
    38  C    0.028687
    39  C    0.112548
    40  C   -0.043738
    41  C    0.031272
    42  C    0.109612
    43  C   -0.237145
    44  C    0.070430
    45  C    0.148529
 Electronic spatial extent (au):  <R**2>=          35849.4817
 Charge=              0.0000 electrons
 Dipole moment (field-independent basis, Debye):
    X=            -18.6633    Y=             -2.5377    Z=             -0.0403  Tot=             18.8351
 Quadrupole moment (field-independent basis, Debye-Ang):
   XX=           -339.0839   YY=           -269.0078   ZZ=           -263.2492
   XY=             -6.3539   XZ=              3.4180   YZ=            -10.3343
 Traceless Quadrupole moment (field-independent basis, Debye-Ang):
   XX=            -48.6369   YY=             21.4392   ZZ=             27.1977
   XY=             -6.3539   XZ=              3.4180   YZ=            -10.3343
 Octapole moment (field-independent basis, Debye-Ang**2):
  XXX=          -1573.7980  YYY=           -169.8937  ZZZ=              2.5954  XYY=           -602.6488
  XXY=            -30.5824  XXZ=             32.5789  XZZ=            -62.2098  YZZ=             11.0810
  YYZ=            -22.9729  XYZ=            -33.2030
 Hexadecapole moment (field-independent basis, Debye-Ang**3):
 XXXX=         -40615.0336 YYYY=         -18479.9471 ZZZZ=          -1312.3479 XXXY=            275.8724
 XXXZ=            187.3019 YYYX=          -1055.9190 YYYZ=           -577.0521 ZZZX=             -1.5817
 ZZZY=              1.0949 XXYY=         -14012.7609 XXZZ=          -5307.2652 YYZZ=          -3324.7629
 XXYZ=           -189.2151 YYXZ=            -12.9215 ZZXY=             56.9195
 N-N= 4.915568378269D+03 E-N=-1.427446481031D+04  KE= 1.899851923790D+03
 No NMR shielding tensors so no spin-rotation constants.
 Leave Link  601 at Fri Nov  7 03:22:53 2025, MaxMem= 30870077440 cpu:             128.1 elap:               2.4
 (Enter /public/software/gauss/g16/l9999.exe)
 1\1\GINC-CU015\SP\RM062X\def2TZVPP\C38H31B1F2N4\BAIDING\07-Nov-2025\0\
 \#p M062X/DEF2TZVPP scrf=(solvent=water) em=GD3\\Energy calculation fo
 r M100034873\\0,1\C,0,8.829607,0.406381,0.164144\C,0,7.327701,0.271715
 ,0.111473\C,0,6.582487,0.098972,1.283624\C,0,5.187743,-0.00357,1.26502
 5\C,0,4.428839,-0.189479,2.557669\C,0,4.517869,0.069207,0.025299\C,0,3
 .024766,-0.034774,-0.016357\C,0,2.246905,1.133004,0.030821\C,0,2.61620
 8,2.52229,0.122562\C,0,3.978522,3.13653,0.220798\C,0,1.433049,3.239091
 ,0.097711\C,0,0.352698,2.326407,-0.007323\C,0,-1.059905,2.601791,-0.08
 7933\C,0,-1.587972,3.839164,0.078872\C,0,-3.001041,4.19187,0.002013\C,
 0,-4.025555,3.250351,-0.241147\C,0,-5.353139,3.641648,-0.302788\C,0,-5
 .695274,4.995989,-0.120937\C,0,-7.063724,5.400194,-0.182122\N,0,-8.181
 835,5.730309,-0.231977\C,0,-4.690707,5.948423,0.122594\C,0,-3.365027,5
 .543069,0.182456\N,0,0.85773,1.061085,-0.046158\B,0,0.027235,-0.246779
 ,0.006931\F,0,-0.887277,-0.277384,-1.053361\F,0,-0.676716,-0.290712,1.
 22484\N,0,1.016311,-1.436351,-0.096528\C,0,0.717779,-2.763396,-0.24711
 7\C,0,-0.569159,-3.418655,-0.2613\C,0,-1.771641,-2.96313,0.167849\C,0,
 -3.022482,-3.715825,0.127959\C,0,-3.16043,-4.977025,-0.493141\C,0,-4.3
 74275,-5.645118,-0.491271\C,0,-5.495249,-5.064617,0.133718\C,0,-6.7467
 13,-5.752499,0.135439\N,0,-7.768957,-6.315382,0.137127\C,0,-5.381483,-
 3.807229,0.751518\C,0,-4.159831,-3.149308,0.741876\C,0,1.927996,-3.482
 858,-0.380746\C,0,2.991861,-2.601953,-0.281303\C,0,4.432871,-3.00581,-
 0.353594\C,0,2.41062,-1.300225,-0.114305\C,0,5.243782,0.240938,-1.1704
 15\C,0,4.548114,0.316375,-2.508875\C,0,6.638953,0.336498,-1.103663\H,0
 ,9.283697,0.193688,-0.807691\H,0,9.123649,1.424356,0.448807\H,0,9.2653
 02,-0.27187,0.904513\H,0,7.098349,0.041186,2.239277\H,0,3.870988,-1.13
 2554,2.564827\H,0,5.112337,-0.195537,3.410235\H,0,3.69875,0.612309,2.7
 14319\H,0,4.591288,2.91631,-0.658526\H,0,3.884647,4.222225,0.306601\H,
 0,4.529054,2.771279,1.092894\H,0,1.343256,4.315897,0.132366\H,0,-1.702
 746,1.757271,-0.307718\H,0,-0.9208,4.670511,0.29475\H,0,-3.782907,2.20
 2757,-0.380232\H,0,-6.132456,2.910743,-0.488752\H,0,-4.95569,6.99071,0
 .262328\H,0,-2.58969,6.27929,0.370756\H,0,-0.498148,-4.438895,-0.63034
 9\H,0,-1.842395,-1.980153,0.617559\H,0,-2.313878,-5.438241,-0.989582\H
 ,0,-4.468306,-6.612641,-0.972241\H,0,-6.245556,-3.359378,1.229989\H,0,
 -4.073364,-2.178164,1.219375\H,0,1.991917,-4.554506,-0.515205\H,0,4.95
 0367,-2.534238,-1.194262\H,0,4.982107,-2.733935,0.552613\H,0,4.499729,
 -4.089672,-0.479559\H,0,5.275643,0.420017,-3.317646\H,0,3.950439,-0.58
 1041,-2.703332\H,0,3.86393,1.170802,-2.558805\H,0,7.198908,0.463996,-2
 .026991\\Version=ES64L-G16RevA.03\State=1-A\HF=-1910.4181441\RMSD=5.97
 1e-09\Dipole=7.342717,0.9983921,-0.0158477\Quadrupole=-36.1603716,15.9
 395146,20.220857,-4.7239967,-2.541211,7.6833284\PG=C01 [X(C38H31B1F2N4
 )]\\@


 WE HAVE LEFT UNDONE THOSE THINGS WHICH WE OUGHT TO HAVE DONE,
 AND WE HAVE DONE THOSE THINGS WHICH WE OUGHT NOT TO HAVE DONE.
                   BOOK OF COMMON PRAYER                      
 Job cpu time:       0 days 18 hours 17 minutes  1.3 seconds.
 Elapsed time:       0 days  0 hours 17 minutes 25.6 seconds.
 File lengths (MBytes):  RWF=   2216 Int=      0 D2E=      0 Chk=    195 Scr=      1
 Normal termination of Gaussian 16 at Fri Nov  7 03:22:54 2025.
