 Entering Gaussian System, Link 0=g16
 Input=M100034546_sp.gjf
 Output=M100034546_sp.log
 Initial command:
 /public/software/gauss/g16/l1.exe "/public/home/baiding/1105_34546/freq/tmp_M100034546_sp_1569004/Gau-3061951.inp" -scrdir="/public/home/baiding/1105_34546/freq/tmp_M100034546_sp_1569004/"
 Entering Link 1 = /public/software/gauss/g16/l1.exe PID=   3061952.
  
 Copyright (c) 1988,1990,1992,1993,1995,1998,2003,2009,2016,
            Gaussian, Inc.  All Rights Reserved.
  
 This is part of the Gaussian(R) 16 program.  It is based on
 the Gaussian(R) 09 system (copyright 2009, Gaussian, Inc.),
 the Gaussian(R) 03 system (copyright 2003, Gaussian, Inc.),
 the Gaussian(R) 98 system (copyright 1998, Gaussian, Inc.),
 the Gaussian(R) 94 system (copyright 1995, Gaussian, Inc.),
 the Gaussian 92(TM) system (copyright 1992, Gaussian, Inc.),
 the Gaussian 90(TM) system (copyright 1990, Gaussian, Inc.),
 the Gaussian 88(TM) system (copyright 1988, Gaussian, Inc.),
 the Gaussian 86(TM) system (copyright 1986, Carnegie Mellon
 University), and the Gaussian 82(TM) system (copyright 1983,
 Carnegie Mellon University). Gaussian is a federally registered
 trademark of Gaussian, Inc.
  
 This software contains proprietary and confidential information,
 including trade secrets, belonging to Gaussian, Inc.
  
 This software is provided under written license and may be
 used, copied, transmitted, or stored only in accord with that
 written license.
  
 The following legend is applicable only to US Government
 contracts under FAR:
  
                    RESTRICTED RIGHTS LEGEND
  
 Use, reproduction and disclosure by the US Government is
 subject to restrictions as set forth in subparagraphs (a)
 and (c) of the Commercial Computer Software - Restricted
 Rights clause in FAR 52.227-19.
  
 Gaussian, Inc.
 340 Quinnipiac St., Bldg. 40, Wallingford CT 06492
  
  
 ---------------------------------------------------------------
 Warning -- This program may not be used in any manner that
 competes with the business of Gaussian, Inc. or will provide
 assistance to any competitor of Gaussian, Inc.  The licensee
 of this program is prohibited from giving any competitor of
 Gaussian, Inc. access to this program.  By using this program,
 the user acknowledges that Gaussian, Inc. is engaged in the
 business of creating and licensing software in the field of
 computational chemistry and represents and warrants to the
 licensee that it is not a competitor of Gaussian, Inc. and that
 it will not use this program in any manner prohibited above.
 ---------------------------------------------------------------
  

 Cite this work as:
 Gaussian 16, Revision A.03,
 M. J. Frisch, G. W. Trucks, H. B. Schlegel, G. E. Scuseria, 
 M. A. Robb, J. R. Cheeseman, G. Scalmani, V. Barone, 
 G. A. Petersson, H. Nakatsuji, X. Li, M. Caricato, A. V. Marenich, 
 J. Bloino, B. G. Janesko, R. Gomperts, B. Mennucci, H. P. Hratchian, 
 J. V. Ortiz, A. F. Izmaylov, J. L. Sonnenberg, D. Williams-Young, 
 F. Ding, F. Lipparini, F. Egidi, J. Goings, B. Peng, A. Petrone, 
 T. Henderson, D. Ranasinghe, V. G. Zakrzewski, J. Gao, N. Rega, 
 G. Zheng, W. Liang, M. Hada, M. Ehara, K. Toyota, R. Fukuda, 
 J. Hasegawa, M. Ishida, T. Nakajima, Y. Honda, O. Kitao, H. Nakai, 
 T. Vreven, K. Throssell, J. A. Montgomery, Jr., J. E. Peralta, 
 F. Ogliaro, M. J. Bearpark, J. J. Heyd, E. N. Brothers, K. N. Kudin, 
 V. N. Staroverov, T. A. Keith, R. Kobayashi, J. Normand, 
 K. Raghavachari, A. P. Rendell, J. C. Burant, S. S. Iyengar, 
 J. Tomasi, M. Cossi, J. M. Millam, M. Klene, C. Adamo, R. Cammi, 
 J. W. Ochterski, R. L. Martin, K. Morokuma, O. Farkas, 
 J. B. Foresman, and D. J. Fox, Gaussian, Inc., Wallingford CT, 2016.
 
 ******************************************
 Gaussian 16:  ES64L-G16RevA.03 25-Dec-2016
                 6-Nov-2025 
 ******************************************
 %nprocshared=64
 Will use up to   64 processors via shared memory.
 %mem=230GB
 %chk=M100034546_sp.chk
 ----------------------------------------------
 #p M062X/DEF2TZVPP scrf=(solvent=water) em=GD3
 ----------------------------------------------
 1/38=1,172=1/1;
 2/12=2,17=6,18=5,40=1/2;
 3/5=44,7=202,11=2,25=1,30=1,70=2201,72=1,74=-55,124=31/1,2,3;
 4//1;
 5/5=2,38=5,53=1/2;
 6/7=2,8=2,9=2,10=2,28=1/1;
 99/5=1,9=1/99;
 Leave Link    1 at Thu Nov  6 07:44:10 2025, MaxMem= 30870077440 cpu:              12.8 elap:               0.2
 (Enter /public/software/gauss/g16/l101.exe)
 ------------------------------------
 Energy calculation for M100034546_sp
 ------------------------------------
 Symbolic Z-matrix:
 Charge =  0 Multiplicity = 1
 B                    -0.6997    1.56408   0.04492 
 N                     0.48967   2.54324  -0.12798 
 C                     1.82628   2.17246  -0.35598 
 C                     2.17471   0.80817  -0.47517 
 C                     1.19084  -0.18894  -0.41809 
 N                    -0.16333   0.14016  -0.26734 
 C                     1.29611  -1.61501  -0.48278 
 C                    -0.00649  -2.11893  -0.37516 
 C                    -0.90221  -0.99894  -0.23653 
 C                     0.40455   3.88304  -0.06561 
 C                     1.70196   4.42879  -0.26414 
 C                     2.60452   3.35508  -0.45134 
 C                    -0.86649   4.62248   0.16799 
 C                     4.06807   3.52763  -0.70695 
 F                    -1.18649   1.62128   1.35641 
 F                    -1.72468   1.90926  -0.8472 
 C                     2.51183  -2.47179  -0.6377 
 C                    -2.33432  -0.96461  -0.11184 
 C                     3.60647   0.43697  -0.66994 
 C                     4.10239   0.14005  -1.94979 
 C                     5.43857  -0.19384  -2.13246 
 C                     6.30969  -0.24846  -1.03278 
 C                     5.8269    0.04119   0.2499 
 C                     4.48403   0.38693   0.41781 
 O                     7.60296  -0.59107  -1.31421 
 C                     8.54731  -0.67185  -0.22895 
 C                     9.8946   -1.05858  -0.81673 
 C                     10.98055  -1.17472   0.25917 
 C                     12.35251  -1.55014  -0.31253 
 C                     13.4445  -1.67162   0.75636 
 C                     14.82008  -2.03668   0.18637 
 C                     15.91263  -2.16149   1.25466 
 C                     17.28997  -2.51909   0.68413 
 C                     18.38206  -2.64707   1.75252 
 C                     19.76036  -2.99998   1.18188 
 C                     20.85206  -3.13107   2.25015 
 C                     22.2246  -3.48159   1.67092 
 C                     2.00694   5.80363  -0.27354 
 C                     2.27057   6.99505  -0.28154 
 C                     2.57397   8.37906  -0.28965 
 C                     3.90095   8.8208   -0.50074 
 C                     4.19942   10.17333  -0.5083 
 C                     3.16816   11.09542  -0.3041 
 C                     1.84649   10.69033  -0.09287 
 C                     1.55314   9.3367   -0.0864 
 N                     3.47845   12.51216  -0.31153 
 O                     2.55936   13.32239  -0.12979 
 O                     4.6518    12.86172  -0.49921 
 C                    -0.35973  -3.48591  -0.43821 
 C                    -0.62343  -4.67568  -0.5056 
 C                    -0.96892  -6.05226  -0.58098 
 C                    -2.31789  -6.46697  -0.57815 
 C                    -2.66197  -7.80743  -0.65564 
 C                    -1.67123  -8.81967  -0.72965 
 C                    -0.3174   -8.39757  -0.74868 
 C                     0.01924  -7.05486  -0.67157 
 N                    -2.01158  -10.16279  -0.76042 
 C                    -0.99402  -11.13208  -1.16255 
 C                    -3.39311  -10.52598  -1.0714 
 C                    -3.11577  -2.03915   0.17387 
 C                    -4.56472  -2.05142   0.29489 
 C                    -5.20482  -3.26832   0.62179 
 C                    -6.58186  -3.35194   0.74723 
 C                    -7.3756   -2.21025   0.54779 
 C                    -6.7645   -0.98725   0.22308 
 C                    -5.3813   -0.9189    0.10122 
 O                    -8.71903  -2.38687   0.69049 
 C                    -9.5967   -1.26008   0.48847 
 C                    -11.02157  -1.74388   0.70088 
 C                    -12.04682  -0.62151   0.50229 
 C                    -13.49209  -1.08903   0.70928 
 C                    -14.52724   0.02327   0.5068 
 C                    -15.9732  -0.44411   0.71006 
 C                    -17.01123   0.66519   0.504 
 C                    -18.45702   0.19622   0.70502 
 C                    -19.49622   1.30405   0.4969 
 C                    -20.94171   0.83435   0.69681 
 C                    -21.98177   1.94113   0.488 
 C                    -23.42138   1.46234   0.68954 
 H                    -1.54764   4.50325  -0.68061 
 H                    -1.38106   4.23905   1.05405 
 H                    -0.66229   5.68525   0.30666 
 H                     4.28905   4.58327  -0.88324 
 H                     4.67109   3.19629   0.14466 
 H                     4.4011    2.95525  -1.57656 
 H                     3.29283  -2.20313   0.07813 
 H                     2.24452  -3.51973  -0.4828 
 H                     2.94828  -2.38018  -1.63741 
 H                    -2.78982   0.00768  -0.26035 
 H                     3.43743   0.17591  -2.80719 
 H                     5.82644  -0.41836  -3.12087 
 H                     6.47779   0.00406   1.11444 
 H                     4.11834   0.61426   1.41454 
 H                     8.60528   0.29914   0.27859 
 H                     8.20539  -1.41939   0.49793 
 H                     9.7902   -2.01304  -1.34753 
 H                     10.18526  -0.3072   -1.56149 
 H                     11.0613  -0.2216    0.79967 
 H                     10.67825  -1.92533   1.00227 
 H                     12.26989  -2.50098  -0.85747 
 H                     12.65287  -0.79728  -1.05476 
 H                     13.5205  -0.72256   1.30588 
 H                     13.14542  -2.42858   1.49529 
 H                     14.74365  -2.98408  -0.36605 
 H                     15.11923  -1.27782  -0.55068 
 H                     15.98549  -1.21566   1.81032 
 H                     15.61557  -2.92375   1.98906 
 H                     17.21689  -3.46352   0.12613 
 H                     17.5877  -1.75522  -0.04833 
 H                     18.45304  -1.70372   2.31268 
 H                     18.08572  -3.41322   2.48321 
 H                     19.69053  -3.94246   0.61992 
 H                     20.05896  -2.23282   0.45302 
 H                     20.92211  -2.18998   2.81251 
 H                     20.55522  -3.89902   2.97742 
 H                     22.98185  -3.56973   2.45753 
 H                     22.19522  -4.43494   1.13029 
 H                     22.56569  -2.71382   0.96653 
 H                     4.68824   8.09222  -0.65682 
 H                     5.21296   10.51753  -0.66874 
 H                     1.06934   11.42755   0.06187 
 H                     0.5339    9.00501   0.07535 
 H                    -3.10479  -5.72035  -0.5244 
 H                    -3.71225  -8.06915  -0.65898 
 H                     0.48154  -9.124    -0.82486 
 H                     1.06666  -6.76958  -0.68688 
 H                    -0.6275   -10.96396  -2.18565 
 H                    -0.13769  -11.10687  -0.48382 
 H                    -1.42303  -12.13304  -1.11054 
 H                    -4.08408  -10.11475  -0.33091 
 H                    -3.70955  -10.18104  -2.06649 
 H                    -3.48633  -11.61166  -1.03782 
 H                    -2.63896  -2.99956   0.34278 
 H                    -4.59975  -4.15728   0.77919 
 H                    -7.0666   -4.29005   0.99755 
 H                    -7.35754  -0.09502   0.06538 
 H                    -4.93295   0.03709  -0.15 
 H                    -9.33948  -0.46588   1.19997 
 H                    -9.45995  -0.87058  -0.5278 
 H                    -11.22535  -2.56411   0.00138 
 H                    -11.10957  -2.15613   1.71374 
 H                    -11.8272   0.2005    1.1973 
 H                    -11.94068  -0.20627  -0.5093 
 H                    -13.70707  -1.91528   0.01718 
 H                    -13.59689  -1.50316   1.7219 
 H                    -14.31217   0.84932   1.1995 
 H                    -14.41939   0.43824  -0.50543 
 H                    -16.18624  -1.27209   0.01891 
 H                    -16.08117  -0.8577    1.7229 
 H                    -16.79929   1.49294   1.19577 
 H                    -16.90233   1.07932  -0.50856 
 H                    -18.66802  -0.63246   0.01404 
 H                    -18.56618  -0.21703   1.71792 
 H                    -19.28588   2.13264   1.18822 
 H                    -19.38674   1.71755  -0.51589 
 H                    -21.15311   0.0056    0.00583 
 H                    -21.05273   0.42143   1.70978 
 H                    -21.77183   2.76916   1.17872 
 H                    -21.87197   2.35363  -0.52421 
 H                    -24.14019   2.27413   0.53382 
 H                    -23.67321   0.65719  -0.01069 
 H                    -23.57224   1.07559   1.70426 
 
 ITRead=  0  0  0  0  0  0  0  0  0  0  0  0  0  0  0  0  0  0  0  0
 ITRead=  0  0  0  0  0  0  0  0  0  0  0  0  0  0  0  0  0  0  0  0
 ITRead=  0  0  0  0  0  0  0  0  0  0  0  0  0  0  0  0  0  0  0  0
 ITRead=  0  0  0  0  0  0  0  0  0  0  0  0  0  0  0  0  0  0  0  0
 ITRead=  0  0  0  0  0  0  0  0  0  0  0  0  0  0  0  0  0  0  0  0
 ITRead=  0  0  0  0  0  0  0  0  0  0  0  0  0  0  0  0  0  0  0  0
 ITRead=  0  0  0  0  0  0  0  0  0  0  0  0  0  0  0  0  0  0  0  0
 ITRead=  0  0  0  0  0  0  0  0  0  0  0  0  0  0  0  0  0  0  0  0
 ITRead=  0  0
 MicOpt= -1 -1 -1 -1 -1 -1 -1 -1 -1 -1 -1 -1 -1 -1 -1 -1 -1 -1 -1 -1
 MicOpt= -1 -1 -1 -1 -1 -1 -1 -1 -1 -1 -1 -1 -1 -1 -1 -1 -1 -1 -1 -1
 MicOpt= -1 -1 -1 -1 -1 -1 -1 -1 -1 -1 -1 -1 -1 -1 -1 -1 -1 -1 -1 -1
 MicOpt= -1 -1 -1 -1 -1 -1 -1 -1 -1 -1 -1 -1 -1 -1 -1 -1 -1 -1 -1 -1
 MicOpt= -1 -1 -1 -1 -1 -1 -1 -1 -1 -1 -1 -1 -1 -1 -1 -1 -1 -1 -1 -1
 MicOpt= -1 -1 -1 -1 -1 -1 -1 -1 -1 -1 -1 -1 -1 -1 -1 -1 -1 -1 -1 -1
 MicOpt= -1 -1 -1 -1 -1 -1 -1 -1 -1 -1 -1 -1 -1 -1 -1 -1 -1 -1 -1 -1
 MicOpt= -1 -1 -1 -1 -1 -1 -1 -1 -1 -1 -1 -1 -1 -1 -1 -1 -1 -1 -1 -1
 MicOpt= -1 -1
 NAtoms=    162 NQM=      162 NQMF=       0 NMMI=      0 NMMIF=      0
                NMic=       0 NMicF=      0.
                    Isotopes and Nuclear Properties:
 (Nuclear quadrupole moments (NQMom) in fm**2, nuclear magnetic moments (NMagM)
  in nuclear magnetons)

  Atom         1           2           3           4           5           6           7           8           9          10
 IAtWgt=          11          14          12          12          12          14          12          12          12          12
 AtmWgt=  11.0093053  14.0030740  12.0000000  12.0000000  12.0000000  14.0030740  12.0000000  12.0000000  12.0000000  12.0000000
 NucSpn=           3           2           0           0           0           2           0           0           0           0
 AtZEff=  -0.0000000  -0.0000000  -0.0000000  -0.0000000  -0.0000000  -0.0000000  -0.0000000  -0.0000000  -0.0000000  -0.0000000
 NQMom=    4.0590000   2.0440000   0.0000000   0.0000000   0.0000000   2.0440000   0.0000000   0.0000000   0.0000000   0.0000000
 NMagM=    2.6886370   0.4037610   0.0000000   0.0000000   0.0000000   0.4037610   0.0000000   0.0000000   0.0000000   0.0000000
 AtZNuc=   5.0000000   7.0000000   6.0000000   6.0000000   6.0000000   7.0000000   6.0000000   6.0000000   6.0000000   6.0000000

  Atom        11          12          13          14          15          16          17          18          19          20
 IAtWgt=          12          12          12          12          19          19          12          12          12          12
 AtmWgt=  12.0000000  12.0000000  12.0000000  12.0000000  18.9984033  18.9984033  12.0000000  12.0000000  12.0000000  12.0000000
 NucSpn=           0           0           0           0           1           1           0           0           0           0
 AtZEff=  -0.0000000  -0.0000000  -0.0000000  -0.0000000  -0.0000000  -0.0000000  -0.0000000  -0.0000000  -0.0000000  -0.0000000
 NQMom=    0.0000000   0.0000000   0.0000000   0.0000000   0.0000000   0.0000000   0.0000000   0.0000000   0.0000000   0.0000000
 NMagM=    0.0000000   0.0000000   0.0000000   0.0000000   2.6288670   2.6288670   0.0000000   0.0000000   0.0000000   0.0000000
 AtZNuc=   6.0000000   6.0000000   6.0000000   6.0000000   9.0000000   9.0000000   6.0000000   6.0000000   6.0000000   6.0000000

  Atom        21          22          23          24          25          26          27          28          29          30
 IAtWgt=          12          12          12          12          16          12          12          12          12          12
 AtmWgt=  12.0000000  12.0000000  12.0000000  12.0000000  15.9949146  12.0000000  12.0000000  12.0000000  12.0000000  12.0000000
 NucSpn=           0           0           0           0           0           0           0           0           0           0
 AtZEff=  -0.0000000  -0.0000000  -0.0000000  -0.0000000  -0.0000000  -0.0000000  -0.0000000  -0.0000000  -0.0000000  -0.0000000
 NQMom=    0.0000000   0.0000000   0.0000000   0.0000000   0.0000000   0.0000000   0.0000000   0.0000000   0.0000000   0.0000000
 NMagM=    0.0000000   0.0000000   0.0000000   0.0000000   0.0000000   0.0000000   0.0000000   0.0000000   0.0000000   0.0000000
 AtZNuc=   6.0000000   6.0000000   6.0000000   6.0000000   8.0000000   6.0000000   6.0000000   6.0000000   6.0000000   6.0000000

  Atom        31          32          33          34          35          36          37          38          39          40
 IAtWgt=          12          12          12          12          12          12          12          12          12          12
 AtmWgt=  12.0000000  12.0000000  12.0000000  12.0000000  12.0000000  12.0000000  12.0000000  12.0000000  12.0000000  12.0000000
 NucSpn=           0           0           0           0           0           0           0           0           0           0
 AtZEff=  -0.0000000  -0.0000000  -0.0000000  -0.0000000  -0.0000000  -0.0000000  -0.0000000  -0.0000000  -0.0000000  -0.0000000
 NQMom=    0.0000000   0.0000000   0.0000000   0.0000000   0.0000000   0.0000000   0.0000000   0.0000000   0.0000000   0.0000000
 NMagM=    0.0000000   0.0000000   0.0000000   0.0000000   0.0000000   0.0000000   0.0000000   0.0000000   0.0000000   0.0000000
 AtZNuc=   6.0000000   6.0000000   6.0000000   6.0000000   6.0000000   6.0000000   6.0000000   6.0000000   6.0000000   6.0000000

  Atom        41          42          43          44          45          46          47          48          49          50
 IAtWgt=          12          12          12          12          12          14          16          16          12          12
 AtmWgt=  12.0000000  12.0000000  12.0000000  12.0000000  12.0000000  14.0030740  15.9949146  15.9949146  12.0000000  12.0000000
 NucSpn=           0           0           0           0           0           2           0           0           0           0
 AtZEff=  -0.0000000  -0.0000000  -0.0000000  -0.0000000  -0.0000000  -0.0000000  -0.0000000  -0.0000000  -0.0000000  -0.0000000
 NQMom=    0.0000000   0.0000000   0.0000000   0.0000000   0.0000000   2.0440000   0.0000000   0.0000000   0.0000000   0.0000000
 NMagM=    0.0000000   0.0000000   0.0000000   0.0000000   0.0000000   0.4037610   0.0000000   0.0000000   0.0000000   0.0000000
 AtZNuc=   6.0000000   6.0000000   6.0000000   6.0000000   6.0000000   7.0000000   8.0000000   8.0000000   6.0000000   6.0000000

  Atom        51          52          53          54          55          56          57          58          59          60
 IAtWgt=          12          12          12          12          12          12          14          12          12          12
 AtmWgt=  12.0000000  12.0000000  12.0000000  12.0000000  12.0000000  12.0000000  14.0030740  12.0000000  12.0000000  12.0000000
 NucSpn=           0           0           0           0           0           0           2           0           0           0
 AtZEff=  -0.0000000  -0.0000000  -0.0000000  -0.0000000  -0.0000000  -0.0000000  -0.0000000  -0.0000000  -0.0000000  -0.0000000
 NQMom=    0.0000000   0.0000000   0.0000000   0.0000000   0.0000000   0.0000000   2.0440000   0.0000000   0.0000000   0.0000000
 NMagM=    0.0000000   0.0000000   0.0000000   0.0000000   0.0000000   0.0000000   0.4037610   0.0000000   0.0000000   0.0000000
 AtZNuc=   6.0000000   6.0000000   6.0000000   6.0000000   6.0000000   6.0000000   7.0000000   6.0000000   6.0000000   6.0000000

  Atom        61          62          63          64          65          66          67          68          69          70
 IAtWgt=          12          12          12          12          12          12          16          12          12          12
 AtmWgt=  12.0000000  12.0000000  12.0000000  12.0000000  12.0000000  12.0000000  15.9949146  12.0000000  12.0000000  12.0000000
 NucSpn=           0           0           0           0           0           0           0           0           0           0
 AtZEff=  -0.0000000  -0.0000000  -0.0000000  -0.0000000  -0.0000000  -0.0000000  -0.0000000  -0.0000000  -0.0000000  -0.0000000
 NQMom=    0.0000000   0.0000000   0.0000000   0.0000000   0.0000000   0.0000000   0.0000000   0.0000000   0.0000000   0.0000000
 NMagM=    0.0000000   0.0000000   0.0000000   0.0000000   0.0000000   0.0000000   0.0000000   0.0000000   0.0000000   0.0000000
 AtZNuc=   6.0000000   6.0000000   6.0000000   6.0000000   6.0000000   6.0000000   8.0000000   6.0000000   6.0000000   6.0000000

  Atom        71          72          73          74          75          76          77          78          79          80
 IAtWgt=          12          12          12          12          12          12          12          12          12           1
 AtmWgt=  12.0000000  12.0000000  12.0000000  12.0000000  12.0000000  12.0000000  12.0000000  12.0000000  12.0000000   1.0078250
 NucSpn=           0           0           0           0           0           0           0           0           0           1
 AtZEff=  -0.0000000  -0.0000000  -0.0000000  -0.0000000  -0.0000000  -0.0000000  -0.0000000  -0.0000000  -0.0000000  -0.0000000
 NQMom=    0.0000000   0.0000000   0.0000000   0.0000000   0.0000000   0.0000000   0.0000000   0.0000000   0.0000000   0.0000000
 NMagM=    0.0000000   0.0000000   0.0000000   0.0000000   0.0000000   0.0000000   0.0000000   0.0000000   0.0000000   2.7928460
 AtZNuc=   6.0000000   6.0000000   6.0000000   6.0000000   6.0000000   6.0000000   6.0000000   6.0000000   6.0000000   1.0000000

  Atom        81          82          83          84          85          86          87          88          89          90
 IAtWgt=           1           1           1           1           1           1           1           1           1           1
 AtmWgt=   1.0078250   1.0078250   1.0078250   1.0078250   1.0078250   1.0078250   1.0078250   1.0078250   1.0078250   1.0078250
 NucSpn=           1           1           1           1           1           1           1           1           1           1
 AtZEff=  -0.0000000  -0.0000000  -0.0000000  -0.0000000  -0.0000000  -0.0000000  -0.0000000  -0.0000000  -0.0000000  -0.0000000
 NQMom=    0.0000000   0.0000000   0.0000000   0.0000000   0.0000000   0.0000000   0.0000000   0.0000000   0.0000000   0.0000000
 NMagM=    2.7928460   2.7928460   2.7928460   2.7928460   2.7928460   2.7928460   2.7928460   2.7928460   2.7928460   2.7928460
 AtZNuc=   1.0000000   1.0000000   1.0000000   1.0000000   1.0000000   1.0000000   1.0000000   1.0000000   1.0000000   1.0000000

  Atom        91          92          93          94          95          96          97          98          99         100
 IAtWgt=           1           1           1           1           1           1           1           1           1           1
 AtmWgt=   1.0078250   1.0078250   1.0078250   1.0078250   1.0078250   1.0078250   1.0078250   1.0078250   1.0078250   1.0078250
 NucSpn=           1           1           1           1           1           1           1           1           1           1
 AtZEff=  -0.0000000  -0.0000000  -0.0000000  -0.0000000  -0.0000000  -0.0000000  -0.0000000  -0.0000000  -0.0000000  -0.0000000
 NQMom=    0.0000000   0.0000000   0.0000000   0.0000000   0.0000000   0.0000000   0.0000000   0.0000000   0.0000000   0.0000000
 NMagM=    2.7928460   2.7928460   2.7928460   2.7928460   2.7928460   2.7928460   2.7928460   2.7928460   2.7928460   2.7928460
 AtZNuc=   1.0000000   1.0000000   1.0000000   1.0000000   1.0000000   1.0000000   1.0000000   1.0000000   1.0000000   1.0000000

  Atom       101         102         103         104         105         106         107         108         109         110
 IAtWgt=           1           1           1           1           1           1           1           1           1           1
 AtmWgt=   1.0078250   1.0078250   1.0078250   1.0078250   1.0078250   1.0078250   1.0078250   1.0078250   1.0078250   1.0078250
 NucSpn=           1           1           1           1           1           1           1           1           1           1
 AtZEff=  -0.0000000  -0.0000000  -0.0000000  -0.0000000  -0.0000000  -0.0000000  -0.0000000  -0.0000000  -0.0000000  -0.0000000
 NQMom=    0.0000000   0.0000000   0.0000000   0.0000000   0.0000000   0.0000000   0.0000000   0.0000000   0.0000000   0.0000000
 NMagM=    2.7928460   2.7928460   2.7928460   2.7928460   2.7928460   2.7928460   2.7928460   2.7928460   2.7928460   2.7928460
 AtZNuc=   1.0000000   1.0000000   1.0000000   1.0000000   1.0000000   1.0000000   1.0000000   1.0000000   1.0000000   1.0000000

  Atom       111         112         113         114         115         116         117         118         119         120
 IAtWgt=           1           1           1           1           1           1           1           1           1           1
 AtmWgt=   1.0078250   1.0078250   1.0078250   1.0078250   1.0078250   1.0078250   1.0078250   1.0078250   1.0078250   1.0078250
 NucSpn=           1           1           1           1           1           1           1           1           1           1
 AtZEff=  -0.0000000  -0.0000000  -0.0000000  -0.0000000  -0.0000000  -0.0000000  -0.0000000  -0.0000000  -0.0000000  -0.0000000
 NQMom=    0.0000000   0.0000000   0.0000000   0.0000000   0.0000000   0.0000000   0.0000000   0.0000000   0.0000000   0.0000000
 NMagM=    2.7928460   2.7928460   2.7928460   2.7928460   2.7928460   2.7928460   2.7928460   2.7928460   2.7928460   2.7928460
 AtZNuc=   1.0000000   1.0000000   1.0000000   1.0000000   1.0000000   1.0000000   1.0000000   1.0000000   1.0000000   1.0000000

  Atom       121         122         123         124         125         126         127         128         129         130
 IAtWgt=           1           1           1           1           1           1           1           1           1           1
 AtmWgt=   1.0078250   1.0078250   1.0078250   1.0078250   1.0078250   1.0078250   1.0078250   1.0078250   1.0078250   1.0078250
 NucSpn=           1           1           1           1           1           1           1           1           1           1
 AtZEff=  -0.0000000  -0.0000000  -0.0000000  -0.0000000  -0.0000000  -0.0000000  -0.0000000  -0.0000000  -0.0000000  -0.0000000
 NQMom=    0.0000000   0.0000000   0.0000000   0.0000000   0.0000000   0.0000000   0.0000000   0.0000000   0.0000000   0.0000000
 NMagM=    2.7928460   2.7928460   2.7928460   2.7928460   2.7928460   2.7928460   2.7928460   2.7928460   2.7928460   2.7928460
 AtZNuc=   1.0000000   1.0000000   1.0000000   1.0000000   1.0000000   1.0000000   1.0000000   1.0000000   1.0000000   1.0000000

  Atom       131         132         133         134         135         136         137         138         139         140
 IAtWgt=           1           1           1           1           1           1           1           1           1           1
 AtmWgt=   1.0078250   1.0078250   1.0078250   1.0078250   1.0078250   1.0078250   1.0078250   1.0078250   1.0078250   1.0078250
 NucSpn=           1           1           1           1           1           1           1           1           1           1
 AtZEff=  -0.0000000  -0.0000000  -0.0000000  -0.0000000  -0.0000000  -0.0000000  -0.0000000  -0.0000000  -0.0000000  -0.0000000
 NQMom=    0.0000000   0.0000000   0.0000000   0.0000000   0.0000000   0.0000000   0.0000000   0.0000000   0.0000000   0.0000000
 NMagM=    2.7928460   2.7928460   2.7928460   2.7928460   2.7928460   2.7928460   2.7928460   2.7928460   2.7928460   2.7928460
 AtZNuc=   1.0000000   1.0000000   1.0000000   1.0000000   1.0000000   1.0000000   1.0000000   1.0000000   1.0000000   1.0000000

  Atom       141         142         143         144         145         146         147         148         149         150
 IAtWgt=           1           1           1           1           1           1           1           1           1           1
 AtmWgt=   1.0078250   1.0078250   1.0078250   1.0078250   1.0078250   1.0078250   1.0078250   1.0078250   1.0078250   1.0078250
 NucSpn=           1           1           1           1           1           1           1           1           1           1
 AtZEff=  -0.0000000  -0.0000000  -0.0000000  -0.0000000  -0.0000000  -0.0000000  -0.0000000  -0.0000000  -0.0000000  -0.0000000
 NQMom=    0.0000000   0.0000000   0.0000000   0.0000000   0.0000000   0.0000000   0.0000000   0.0000000   0.0000000   0.0000000
 NMagM=    2.7928460   2.7928460   2.7928460   2.7928460   2.7928460   2.7928460   2.7928460   2.7928460   2.7928460   2.7928460
 AtZNuc=   1.0000000   1.0000000   1.0000000   1.0000000   1.0000000   1.0000000   1.0000000   1.0000000   1.0000000   1.0000000

  Atom       151         152         153         154         155         156         157         158         159         160
 IAtWgt=           1           1           1           1           1           1           1           1           1           1
 AtmWgt=   1.0078250   1.0078250   1.0078250   1.0078250   1.0078250   1.0078250   1.0078250   1.0078250   1.0078250   1.0078250
 NucSpn=           1           1           1           1           1           1           1           1           1           1
 AtZEff=  -0.0000000  -0.0000000  -0.0000000  -0.0000000  -0.0000000  -0.0000000  -0.0000000  -0.0000000  -0.0000000  -0.0000000
 NQMom=    0.0000000   0.0000000   0.0000000   0.0000000   0.0000000   0.0000000   0.0000000   0.0000000   0.0000000   0.0000000
 NMagM=    2.7928460   2.7928460   2.7928460   2.7928460   2.7928460   2.7928460   2.7928460   2.7928460   2.7928460   2.7928460
 AtZNuc=   1.0000000   1.0000000   1.0000000   1.0000000   1.0000000   1.0000000   1.0000000   1.0000000   1.0000000   1.0000000

  Atom       161         162
 IAtWgt=           1           1
 AtmWgt=   1.0078250   1.0078250
 NucSpn=           1           1
 AtZEff=  -0.0000000  -0.0000000
 NQMom=    0.0000000   0.0000000
 NMagM=    2.7928460   2.7928460
 AtZNuc=   1.0000000   1.0000000
 Leave Link  101 at Thu Nov  6 07:44:10 2025, MaxMem= 30870077440 cpu:               5.2 elap:               0.1
 (Enter /public/software/gauss/g16/l202.exe)
 Stoichiometry    C68H83BF2N4O4
 Framework group  C1[X(C68H83BF2N4O4)]
 Deg. of freedom   480
 Full point group                 C1      NOp   1
 Largest Abelian subgroup         C1      NOp   1
 Largest concise Abelian subgroup C1      NOp   1
                         Standard orientation:                         
 ---------------------------------------------------------------------
 Center     Atomic      Atomic             Coordinates (Angstroms)
 Number     Number       Type             X           Y           Z
 ---------------------------------------------------------------------
      1          5           0       -0.699700    1.564083    0.044917
      2          7           0        0.489668    2.543239   -0.127983
      3          6           0        1.826280    2.172463   -0.355976
      4          6           0        2.174715    0.808170   -0.475171
      5          6           0        1.190843   -0.188939   -0.418090
      6          7           0       -0.163333    0.140156   -0.267341
      7          6           0        1.296105   -1.615011   -0.482776
      8          6           0       -0.006488   -2.118927   -0.375159
      9          6           0       -0.902211   -0.998941   -0.236534
     10          6           0        0.404553    3.883044   -0.065612
     11          6           0        1.701957    4.428789   -0.264135
     12          6           0        2.604520    3.355079   -0.451340
     13          6           0       -0.866486    4.622484    0.167992
     14          6           0        4.068070    3.527626   -0.706952
     15          9           0       -1.186493    1.621281    1.356409
     16          9           0       -1.724676    1.909262   -0.847202
     17          6           0        2.511832   -2.471793   -0.637699
     18          6           0       -2.334320   -0.964612   -0.111836
     19          6           0        3.606467    0.436969   -0.669944
     20          6           0        4.102392    0.140047   -1.949794
     21          6           0        5.438566   -0.193841   -2.132459
     22          6           0        6.309689   -0.248458   -1.032778
     23          6           0        5.826902    0.041188    0.249902
     24          6           0        4.484029    0.386928    0.417808
     25          8           0        7.602961   -0.591068   -1.314207
     26          6           0        8.547311   -0.671850   -0.228946
     27          6           0        9.894595   -1.058581   -0.816729
     28          6           0       10.980554   -1.174716    0.259174
     29          6           0       12.352507   -1.550135   -0.312531
     30          6           0       13.444499   -1.671617    0.756363
     31          6           0       14.820078   -2.036677    0.186366
     32          6           0       15.912625   -2.161487    1.254655
     33          6           0       17.289974   -2.519094    0.684127
     34          6           0       18.382060   -2.647067    1.752524
     35          6           0       19.760356   -2.999980    1.181877
     36          6           0       20.852061   -3.131073    2.250154
     37          6           0       22.224601   -3.481594    1.670920
     38          6           0        2.006938    5.803626   -0.273540
     39          6           0        2.270574    6.995050   -0.281538
     40          6           0        2.573970    8.379062   -0.289649
     41          6           0        3.900945    8.820799   -0.500739
     42          6           0        4.199417   10.173326   -0.508302
     43          6           0        3.168155   11.095420   -0.304104
     44          6           0        1.846485   10.690329   -0.092874
     45          6           0        1.553135    9.336701   -0.086401
     46          7           0        3.478451   12.512159   -0.311529
     47          8           0        2.559364   13.322389   -0.129794
     48          8           0        4.651801   12.861716   -0.499212
     49          6           0       -0.359726   -3.485906   -0.438206
     50          6           0       -0.623426   -4.675678   -0.505603
     51          6           0       -0.968918   -6.052260   -0.580983
     52          6           0       -2.317892   -6.466970   -0.578148
     53          6           0       -2.661969   -7.807429   -0.655637
     54          6           0       -1.671225   -8.819668   -0.729647
     55          6           0       -0.317401   -8.397568   -0.748684
     56          6           0        0.019239   -7.054860   -0.671570
     57          7           0       -2.011576  -10.162791   -0.760421
     58          6           0       -0.994017  -11.132079   -1.162545
     59          6           0       -3.393114  -10.525983   -1.071403
     60          6           0       -3.115769   -2.039152    0.173871
     61          6           0       -4.564720   -2.051423    0.294892
     62          6           0       -5.204820   -3.268324    0.621792
     63          6           0       -6.581857   -3.351939    0.747231
     64          6           0       -7.375604   -2.210247    0.547791
     65          6           0       -6.764497   -0.987249    0.223080
     66          6           0       -5.381295   -0.918902    0.101218
     67          8           0       -8.719031   -2.386868    0.690487
     68          6           0       -9.596702   -1.260081    0.488467
     69          6           0      -11.021566   -1.743878    0.700878
     70          6           0      -12.046824   -0.621512    0.502288
     71          6           0      -13.492086   -1.089025    0.709284
     72          6           0      -14.527243    0.023269    0.506803
     73          6           0      -15.973200   -0.444109    0.710055
     74          6           0      -17.011233    0.665188    0.504000
     75          6           0      -18.457016    0.196216    0.705019
     76          6           0      -19.496218    1.304051    0.496904
     77          6           0      -20.941711    0.834352    0.696808
     78          6           0      -21.981767    1.941130    0.488003
     79          6           0      -23.421382    1.462341    0.689535
     80          1           0       -1.547642    4.503250   -0.680610
     81          1           0       -1.381057    4.239050    1.054048
     82          1           0       -0.662292    5.685254    0.306660
     83          1           0        4.289048    4.583273   -0.883242
     84          1           0        4.671086    3.196286    0.144662
     85          1           0        4.401104    2.955252   -1.576556
     86          1           0        3.292830   -2.203126    0.078128
     87          1           0        2.244523   -3.519730   -0.482795
     88          1           0        2.948276   -2.380175   -1.637408
     89          1           0       -2.789824    0.007675   -0.260348
     90          1           0        3.437434    0.175910   -2.807186
     91          1           0        5.826443   -0.418364   -3.120870
     92          1           0        6.477788    0.004059    1.114437
     93          1           0        4.118340    0.614262    1.414537
     94          1           0        8.605276    0.299140    0.278590
     95          1           0        8.205388   -1.419391    0.497934
     96          1           0        9.790204   -2.013045   -1.347533
     97          1           0       10.185258   -0.307203   -1.561488
     98          1           0       11.061298   -0.221604    0.799667
     99          1           0       10.678253   -1.925334    1.002274
    100          1           0       12.269891   -2.500981   -0.857472
    101          1           0       12.652874   -0.797284   -1.054763
    102          1           0       13.520501   -0.722555    1.305884
    103          1           0       13.145424   -2.428577    1.495288
    104          1           0       14.743648   -2.984079   -0.366048
    105          1           0       15.119231   -1.277821   -0.550676
    106          1           0       15.985492   -1.215665    1.810316
    107          1           0       15.615570   -2.923753    1.989057
    108          1           0       17.216894   -3.463520    0.126125
    109          1           0       17.587702   -1.755215   -0.048334
    110          1           0       18.453038   -1.703723    2.312677
    111          1           0       18.085724   -3.413221    2.483205
    112          1           0       19.690526   -3.942461    0.619923
    113          1           0       20.058963   -2.232816    0.453022
    114          1           0       20.922107   -2.189981    2.812506
    115          1           0       20.555222   -3.899023    2.977424
    116          1           0       22.981849   -3.569728    2.457527
    117          1           0       22.195224   -4.434935    1.130291
    118          1           0       22.565689   -2.713815    0.966529
    119          1           0        4.688235    8.092221   -0.656821
    120          1           0        5.212956   10.517528   -0.668742
    121          1           0        1.069343   11.427546    0.061870
    122          1           0        0.533895    9.005006    0.075346
    123          1           0       -3.104793   -5.720351   -0.524404
    124          1           0       -3.712245   -8.069152   -0.658983
    125          1           0        0.481537   -9.123995   -0.824859
    126          1           0        1.066659   -6.769577   -0.686877
    127          1           0       -0.627503  -10.963962   -2.185651
    128          1           0       -0.137693  -11.106867   -0.483820
    129          1           0       -1.423033  -12.133041   -1.110540
    130          1           0       -4.084078  -10.114748   -0.330912
    131          1           0       -3.709546  -10.181044   -2.066490
    132          1           0       -3.486325  -11.611660   -1.037816
    133          1           0       -2.638958   -2.999562    0.342778
    134          1           0       -4.599754   -4.157275    0.779187
    135          1           0       -7.066598   -4.290046    0.997548
    136          1           0       -7.357537   -0.095024    0.065377
    137          1           0       -4.932950    0.037086   -0.149999
    138          1           0       -9.339477   -0.465878    1.199965
    139          1           0       -9.459949   -0.870581   -0.527801
    140          1           0      -11.225352   -2.564112    0.001378
    141          1           0      -11.109566   -2.156134    1.713740
    142          1           0      -11.827196    0.200504    1.197300
    143          1           0      -11.940682   -0.206273   -0.509301
    144          1           0      -13.707074   -1.915280    0.017178
    145          1           0      -13.596885   -1.503162    1.721899
    146          1           0      -14.312171    0.849324    1.199495
    147          1           0      -14.419390    0.438239   -0.505433
    148          1           0      -16.186242   -1.272087    0.018914
    149          1           0      -16.081172   -0.857698    1.722903
    150          1           0      -16.799292    1.492939    1.195774
    151          1           0      -16.902329    1.079315   -0.508562
    152          1           0      -18.668017   -0.632460    0.014041
    153          1           0      -18.566179   -0.217029    1.717917
    154          1           0      -19.285880    2.132635    1.188220
    155          1           0      -19.386737    1.717546   -0.515885
    156          1           0      -21.153115    0.005603    0.005833
    157          1           0      -21.052735    0.421430    1.709779
    158          1           0      -21.771833    2.769162    1.178715
    159          1           0      -21.871975    2.353633   -0.524209
    160          1           0      -24.140190    2.274131    0.533817
    161          1           0      -23.673211    0.657190   -0.010691
    162          1           0      -23.572244    1.075590    1.704259
 ---------------------------------------------------------------------
 Rotational constants (GHZ):           0.0170458           0.0048940           0.0038437
 Leave Link  202 at Thu Nov  6 07:44:10 2025, MaxMem= 30870077440 cpu:               0.3 elap:               0.0
 (Enter /public/software/gauss/g16/l301.exe)
 Standard basis: def2TZVPP (5D, 7F)
 Ernie: Thresh=  0.10000D-02 Tol=  0.10000D-05 Strict=F.
 There are  4089 symmetry adapted cartesian basis functions of A   symmetry.
 There are  3611 symmetry adapted basis functions of A   symmetry.
  3611 basis functions,  5440 primitive gaussians,  4089 cartesian basis functions
   287 alpha electrons      287 beta electrons
       nuclear repulsion energy     10487.1374026185 Hartrees.
 IExCor= 4336 DFT=T Ex+Corr=M062X ExCW=0 ScaHFX=  0.540000
 ScaDFX=  1.000000  1.000000  1.000000  1.000000 ScalE2=  1.000000  1.000000
 IRadAn=      5 IRanWt=     -1 IRanGd=            0 ICorTp=0 IEmpDi=131
 NAtoms=  162 NActive=  162 NUniq=  162 SFac= 1.00D+00 NAtFMM=   60 NAOKFM=T Big=T
 Integral buffers will be    131072 words long.
 Raffenetti 2 integral format.
 Two-electron integral symmetry is turned on.
 R6Disp:  Grimme-D3 Dispersion energy=       -0.0112184160 Hartrees.
 Nuclear repulsion after empirical dispersion term =    10487.1261842026 Hartrees.
 ------------------------------------------------------------------------------
 Polarizable Continuum Model (PCM)
 =================================
 Model                : PCM.
 Atomic radii         : UFF (Universal Force Field).
 Polarization charges : Total charges.
 Charge compensation  : None.
 Solution method      : On-the-fly selection.
 Cavity type          : Scaled VdW (van der Waals Surface) (Alpha=1.100).
 Cavity algorithm     : GePol (No added spheres)
                        Default sphere list used, NSphG=  162.
                        Lebedev-Laikov grids with approx.  5.0 points / Ang**2.
                        Smoothing algorithm: York/Karplus (Gamma=1.0000).
                        Polarization charges: spherical gaussians, with
                                              point-specific exponents (IZeta= 3).
                        Self-potential: point-specific (ISelfS= 7).
                        Self-field    : sphere-specific E.n sum rule (ISelfD= 2).
 Solvent              : Water, Eps=  78.355300 Eps(inf)=   1.777849
 ------------------------------------------------------------------------------
 GePol: Number of generator spheres                  =     162
 GePol: Total number of spheres                      =     162
 GePol: Number of exposed spheres                    =     162 (100.00%)
 GePol: Number of points                             =   11224
 GePol: Average weight of points                     =       0.13
 GePol: Minimum weight of points                     =   0.56D-11
 GePol: Maximum weight of points                     =    0.20577
 GePol: Number of points with low weight             =     743
 GePol: Fraction of low-weight points (<1% of avg)   =       6.62%
 GePol: Cavity surface area                          =   1421.809 Ang**2
 GePol: Cavity volume                                =   1590.716 Ang**3
 Leave Link  301 at Thu Nov  6 07:44:10 2025, MaxMem= 30870077440 cpu:               5.3 elap:               0.1
 (Enter /public/software/gauss/g16/l302.exe)
 NPDir=0 NMtPBC=     1 NCelOv=     1 NCel=       1 NClECP=     1 NCelD=      1
         NCelK=      1 NCelE2=     1 NClLst=     1 CellRange=     0.0.
 One-electron integrals computed using PRISM.
 One-electron integral symmetry used in STVInt
   1 Symmetry operations used in ECPInt.
 ECPInt:  NShTT=  935028 NPrTT= 2520877 LenC2=  294041 LenP2D=  538430.
 LDataN:  DoStor=T MaxTD1= 6 Len=  172
 Number of processors reduced to  49 by ecpmxn.
 NBasis=  3611 RedAO= T EigKep=  3.37D-06  NBF=  3611
 NBsUse=  3611 1.00D-06 EigRej= -1.00D+00 NBFU=  3611
 Precomputing XC quadrature grid using
 IXCGrd= 4 IRadAn=           5 IRanWt=          -1 IRanGd=           0 AccXCQ= 0.00D+00.
 Generated NRdTot=       0 NPtTot=           0 NUsed=           0 NTot=          32
 NSgBfM=  2325  2325  2325  2325  2325 MxSgAt=   162 MxSgA2=   148.
 Leave Link  302 at Thu Nov  6 07:45:10 2025, MaxMem= 30870077440 cpu:            3792.4 elap:              59.5
 (Enter /public/software/gauss/g16/l303.exe)
 DipDrv:  MaxL=1.
 Leave Link  303 at Thu Nov  6 07:45:11 2025, MaxMem= 30870077440 cpu:              85.6 elap:               1.4
 (Enter /public/software/gauss/g16/l401.exe)
 ExpMin= 6.06D-02 ExpMax= 3.55D+04 ExpMxC= 1.21D+03 IAcc=3 IRadAn=         5 AccDes= 0.00D+00
 Harris functional with IExCor= 1009 and IRadAn=       5 diagonalized for initial guess.
 HarFok:  IExCor= 1009 AccDes= 0.00D+00 IRadAn=         5 IDoV= 1 UseB2=F ITyADJ=14
 ICtDFT=  3500011 ScaDFX=  1.000000  1.000000  1.000000  1.000000
 FoFCou: FMM=F IPFlag=           0 FMFlag=      100000 FMFlg1=        2001
         NFxFlg=           0 DoJE=T BraDBF=F KetDBF=T FulRan=T
         wScrn=  0.000000 ICntrl=       500 IOpCl=  0 I1Cent=   200000004 NGrid=           0
         NMat0=    1 NMatS0=      1 NMatT0=    0 NMatD0=    1 NMtDS0=    0 NMtDT0=    0
 Petite list used in FoFCou.
 Harris En= -3384.23674746457    
 JPrj=0 DoOrth=F DoCkMO=F.
 Leave Link  401 at Thu Nov  6 07:45:49 2025, MaxMem= 30870077440 cpu:            2427.0 elap:              38.1
 (Enter /public/software/gauss/g16/l502.exe)
 Integral symmetry usage will be decided dynamically.
 Closed shell SCF:
 Using DIIS extrapolation, IDIIS=  1040.
 NGot= 30870077440 LenX= 30836341196 LenY= 30819617186
 Requested convergence on RMS density matrix=1.00D-08 within 128 cycles.
 Requested convergence on MAX density matrix=1.00D-06.
 Requested convergence on             energy=1.00D-06.
 No special actions if energy rises.
 Fock matrices will be formed incrementally for  20 cycles.

 Cycle   1  Pass 1  IDiag  1:
 FoFJK:  IHMeth= 1 ICntrl=       0 DoSepK=F KAlg= 0 I1Cent=           0 FoldK=F
 IRaf= 280000000 NMat=       1 IRICut=       1 DoRegI=T DoRafI=F ISym2E= 0 IDoP0=0 IntGTp=1.
 FoFCou: FMM=T IPFlag=           0 FMFlag=      100000 FMFlg1=        2001
         NFxFlg=           0 DoJE=F BraDBF=F KetDBF=F FulRan=T
         wScrn=  0.000000 ICntrl=         0 IOpCl=  0 I1Cent=           0 NGrid=           0
         NMat0=    1 NMatS0=      1 NMatT0=    0 NMatD0=    1 NMtDS0=    0 NMtDT0=    0
 Symmetry not used in FoFCou.
 FMM levels:  10  Number of levels for PrismC:   9
 Inv3:  Mode=1 IEnd=   377934528.
 Iteration    1 A*A^-1 deviation from unit magnitude is 2.16D-14 for  11223.
 Iteration    1 A*A^-1 deviation from orthogonality  is 6.88D-15 for  11223   5694.
 Iteration    1 A^-1*A deviation from unit magnitude is 2.16D-14 for  11223.
 Iteration    1 A^-1*A deviation from orthogonality  is 2.01D-14 for   9732   9721.
 E= -3383.35105507202    
 DIIS: error= 3.46D-02 at cycle   1 NSaved=   1.
 NSaved= 1 IEnMin= 1 EnMin= -3383.35105507202     IErMin= 1 ErrMin= 3.46D-02
 ErrMax= 3.46D-02  0.00D+00 EMaxC= 1.00D-01 BMatC= 2.65D+00 BMatP= 2.65D+00
 IDIUse=3 WtCom= 6.54D-01 WtEn= 3.46D-01
 Coeff-Com:  0.100D+01
 Coeff-En:   0.100D+01
 Coeff:      0.100D+01
 Gap=     0.127 Goal=   None    Shift=    0.000
 GapD=    0.127 DampG=1.000 DampE=0.500 DampFc=0.5000 IDamp=-1.
 Damping current iteration by 5.00D-01
 RMSDP=9.71D-04 MaxDP=2.21D-01              OVMax= 2.61D-01

 Cycle   2  Pass 1  IDiag  1:
 RMSU=  4.81D-04    CP:  9.75D-01
 E= -3384.48383461791     Delta-E=       -1.132779545887 Rises=F Damp=T
 DIIS: error= 6.54D-03 at cycle   2 NSaved=   2.
 NSaved= 2 IEnMin= 2 EnMin= -3384.48383461791     IErMin= 2 ErrMin= 6.54D-03
 ErrMax= 6.54D-03  0.00D+00 EMaxC= 1.00D-01 BMatC= 2.24D-01 BMatP= 2.65D+00
 IDIUse=3 WtCom= 9.35D-01 WtEn= 6.54D-02
 Coeff-Com: -0.118D+00 0.112D+01
 Coeff-En:   0.000D+00 0.100D+01
 Coeff:     -0.110D+00 0.111D+01
 Gap=     0.176 Goal=   None    Shift=    0.000
 RMSDP=4.33D-04 MaxDP=9.44D-02 DE=-1.13D+00 OVMax= 2.24D-01

 Cycle   3  Pass 1  IDiag  1:
 RMSU=  3.92D-04    CP:  9.57D-01  1.37D+00
 E= -3385.49898662375     Delta-E=       -1.015152005841 Rises=F Damp=F
 DIIS: error= 1.69D-02 at cycle   3 NSaved=   3.
 NSaved= 3 IEnMin= 3 EnMin= -3385.49898662375     IErMin= 2 ErrMin= 6.54D-03
 ErrMax= 1.69D-02  0.00D+00 EMaxC= 1.00D-01 BMatC= 9.83D-02 BMatP= 2.24D-01
 IDIUse=3 WtCom= 8.31D-01 WtEn= 1.69D-01
 Coeff-Com: -0.109D+00 0.469D+00 0.640D+00
 Coeff-En:   0.000D+00 0.000D+00 0.100D+01
 Coeff:     -0.903D-01 0.389D+00 0.701D+00
 Gap=     0.134 Goal=   None    Shift=    0.000
 RMSDP=1.18D-04 MaxDP=3.84D-02 DE=-1.02D+00 OVMax= 1.10D-01

 Cycle   4  Pass 1  IDiag  1:
 RMSU=  1.16D-04    CP:  9.57D-01  1.36D+00  9.54D-01
 E= -3385.54886513206     Delta-E=       -0.049878508313 Rises=F Damp=F
 DIIS: error= 9.97D-03 at cycle   4 NSaved=   4.
 NSaved= 4 IEnMin= 4 EnMin= -3385.54886513206     IErMin= 2 ErrMin= 6.54D-03
 ErrMax= 9.97D-03  0.00D+00 EMaxC= 1.00D-01 BMatC= 3.45D-02 BMatP= 9.83D-02
 IDIUse=3 WtCom= 9.00D-01 WtEn= 9.97D-02
 Coeff-Com: -0.305D-01 0.860D-01 0.399D+00 0.546D+00
 Coeff-En:   0.000D+00 0.000D+00 0.264D+00 0.736D+00
 Coeff:     -0.275D-01 0.774D-01 0.386D+00 0.565D+00
 Gap=     0.134 Goal=   None    Shift=    0.000
 RMSDP=4.66D-05 MaxDP=1.51D-02 DE=-4.99D-02 OVMax= 4.14D-02

 Cycle   5  Pass 1  IDiag  1:
 RMSU=  3.13D-05    CP:  9.57D-01  1.38D+00  9.76D-01  7.23D-01
 E= -3385.57397604833     Delta-E=       -0.025110916275 Rises=F Damp=F
 DIIS: error= 8.55D-04 at cycle   5 NSaved=   5.
 NSaved= 5 IEnMin= 5 EnMin= -3385.57397604833     IErMin= 5 ErrMin= 8.55D-04
 ErrMax= 8.55D-04  0.00D+00 EMaxC= 1.00D-01 BMatC= 6.12D-04 BMatP= 3.45D-02
 IDIUse=3 WtCom= 9.91D-01 WtEn= 8.55D-03
 Coeff-Com: -0.484D-02 0.815D-02 0.115D+00 0.221D+00 0.660D+00
 Coeff-En:   0.000D+00 0.000D+00 0.000D+00 0.000D+00 0.100D+01
 Coeff:     -0.479D-02 0.808D-02 0.114D+00 0.219D+00 0.663D+00
 Gap=     0.135 Goal=   None    Shift=    0.000
 RMSDP=1.09D-05 MaxDP=3.40D-03 DE=-2.51D-02 OVMax= 4.15D-03

 Cycle   6  Pass 1  IDiag  1:
 RMSU=  1.03D-05    CP:  9.57D-01  1.38D+00  9.76D-01  7.03D-01  9.56D-01
 E= -3385.57449491771     Delta-E=       -0.000518869372 Rises=F Damp=F
 DIIS: error= 2.69D-04 at cycle   6 NSaved=   6.
 NSaved= 6 IEnMin= 6 EnMin= -3385.57449491771     IErMin= 6 ErrMin= 2.69D-04
 ErrMax= 2.69D-04  0.00D+00 EMaxC= 1.00D-01 BMatC= 4.02D-05 BMatP= 6.12D-04
 IDIUse=3 WtCom= 9.97D-01 WtEn= 2.69D-03
 Coeff-Com:  0.759D-03-0.346D-02 0.101D-01 0.327D-01 0.240D+00 0.720D+00
 Coeff-En:   0.000D+00 0.000D+00 0.000D+00 0.000D+00 0.000D+00 0.100D+01
 Coeff:      0.757D-03-0.345D-02 0.101D-01 0.326D-01 0.240D+00 0.720D+00
 Gap=     0.136 Goal=   None    Shift=    0.000
 RMSDP=4.08D-06 MaxDP=1.55D-03 DE=-5.19D-04 OVMax= 2.05D-03

 Cycle   7  Pass 1  IDiag  1:
 RMSU=  3.46D-06    CP:  9.57D-01  1.38D+00  9.77D-01  7.09D-01  1.02D+00
                    CP:  1.01D+00
 E= -3385.57453612758     Delta-E=       -0.000041209878 Rises=F Damp=F
 DIIS: error= 6.87D-05 at cycle   7 NSaved=   7.
 NSaved= 7 IEnMin= 7 EnMin= -3385.57453612758     IErMin= 7 ErrMin= 6.87D-05
 ErrMax= 6.87D-05  0.00D+00 EMaxC= 1.00D-01 BMatC= 5.54D-06 BMatP= 4.02D-05
 IDIUse=1 WtCom= 1.00D+00 WtEn= 0.00D+00
 Coeff-Com:  0.908D-03-0.242D-02-0.102D-01-0.148D-01 0.148D-01 0.289D+00
 Coeff-Com:  0.723D+00
 Coeff:      0.908D-03-0.242D-02-0.102D-01-0.148D-01 0.148D-01 0.289D+00
 Coeff:      0.723D+00
 Gap=     0.136 Goal=   None    Shift=    0.000
 RMSDP=2.24D-06 MaxDP=1.16D-03 DE=-4.12D-05 OVMax= 8.89D-04

 Cycle   8  Pass 1  IDiag  1:
 RMSU=  1.40D-06    CP:  9.57D-01  1.38D+00  9.78D-01  7.08D-01  1.05D+00
                    CP:  1.12D+00  1.10D+00
 E= -3385.57454278109     Delta-E=       -0.000006653503 Rises=F Damp=F
 DIIS: error= 2.67D-05 at cycle   8 NSaved=   8.
 NSaved= 8 IEnMin= 8 EnMin= -3385.57454278109     IErMin= 8 ErrMin= 2.67D-05
 ErrMax= 2.67D-05  0.00D+00 EMaxC= 1.00D-01 BMatC= 6.52D-07 BMatP= 5.54D-06
 IDIUse=1 WtCom= 1.00D+00 WtEn= 0.00D+00
 Coeff-Com:  0.282D-03-0.617D-03-0.531D-02-0.100D-01-0.205D-01 0.393D-01
 Coeff-Com:  0.281D+00 0.716D+00
 Coeff:      0.282D-03-0.617D-03-0.531D-02-0.100D-01-0.205D-01 0.393D-01
 Coeff:      0.281D+00 0.716D+00
 Gap=     0.136 Goal=   None    Shift=    0.000
 RMSDP=6.43D-07 MaxDP=1.58D-04 DE=-6.65D-06 OVMax= 5.41D-04

 Cycle   9  Pass 1  IDiag  1:
 RMSU=  5.39D-07    CP:  9.57D-01  1.38D+00  9.78D-01  7.07D-01  1.05D+00
                    CP:  1.14D+00  1.16D+00  9.62D-01
 E= -3385.57454379141     Delta-E=       -0.000001010319 Rises=F Damp=F
 DIIS: error= 4.70D-06 at cycle   9 NSaved=   9.
 NSaved= 9 IEnMin= 9 EnMin= -3385.57454379141     IErMin= 9 ErrMin= 4.70D-06
 ErrMax= 4.70D-06  0.00D+00 EMaxC= 1.00D-01 BMatC= 1.51D-07 BMatP= 6.52D-07
 IDIUse=1 WtCom= 1.00D+00 WtEn= 0.00D+00
 Coeff-Com: -0.119D-04 0.813D-04-0.917D-03-0.248D-02-0.115D-01-0.236D-01
 Coeff-Com:  0.105D-01 0.336D+00 0.692D+00
 Coeff:     -0.119D-04 0.813D-04-0.917D-03-0.248D-02-0.115D-01-0.236D-01
 Coeff:      0.105D-01 0.336D+00 0.692D+00
 Gap=     0.136 Goal=   None    Shift=    0.000
 RMSDP=4.50D-07 MaxDP=2.64D-04 DE=-1.01D-06 OVMax= 1.95D-04

 Cycle  10  Pass 1  IDiag  1:
 RMSU=  2.08D-07    CP:  9.57D-01  1.38D+00  9.78D-01  7.07D-01  1.06D+00
                    CP:  1.16D+00  1.22D+00  1.12D+00  9.97D-01
 E= -3385.57454401014     Delta-E=       -0.000000218730 Rises=F Damp=F
 DIIS: error= 2.10D-06 at cycle  10 NSaved=  10.
 NSaved=10 IEnMin=10 EnMin= -3385.57454401014     IErMin=10 ErrMin= 2.10D-06
 ErrMax= 2.10D-06  0.00D+00 EMaxC= 1.00D-01 BMatC= 1.78D-08 BMatP= 1.51D-07
 IDIUse=1 WtCom= 1.00D+00 WtEn= 0.00D+00
 Coeff-Com: -0.553D-04 0.142D-03 0.585D-03 0.771D-03-0.847D-03-0.157D-01
 Coeff-Com: -0.490D-01 0.257D-01 0.273D+00 0.765D+00
 Coeff:     -0.553D-04 0.142D-03 0.585D-03 0.771D-03-0.847D-03-0.157D-01
 Coeff:     -0.490D-01 0.257D-01 0.273D+00 0.765D+00
 Gap=     0.136 Goal=   None    Shift=    0.000
 RMSDP=1.33D-07 MaxDP=2.33D-05 DE=-2.19D-07 OVMax= 1.39D-04

 Cycle  11  Pass 1  IDiag  1:
 RMSU=  8.68D-08    CP:  9.57D-01  1.38D+00  9.78D-01  7.07D-01  1.06D+00
                    CP:  1.16D+00  1.23D+00  1.15D+00  1.15D+00  1.04D+00
 E= -3385.57454404631     Delta-E=       -0.000000036178 Rises=F Damp=F
 DIIS: error= 1.59D-06 at cycle  11 NSaved=  11.
 NSaved=11 IEnMin=11 EnMin= -3385.57454404631     IErMin=11 ErrMin= 1.59D-06
 ErrMax= 1.59D-06  0.00D+00 EMaxC= 1.00D-01 BMatC= 4.94D-09 BMatP= 1.78D-08
 IDIUse=1 WtCom= 1.00D+00 WtEn= 0.00D+00
 Coeff-Com: -0.243D-04 0.567D-04 0.431D-03 0.754D-03 0.133D-02-0.400D-02
 Coeff-Com: -0.271D-01-0.350D-01 0.239D-01 0.395D+00 0.644D+00
 Coeff:     -0.243D-04 0.567D-04 0.431D-03 0.754D-03 0.133D-02-0.400D-02
 Coeff:     -0.271D-01-0.350D-01 0.239D-01 0.395D+00 0.644D+00
 Gap=     0.136 Goal=   None    Shift=    0.000
 RMSDP=6.43D-08 MaxDP=3.17D-05 DE=-3.62D-08 OVMax= 4.53D-05

 Cycle  12  Pass 1  IDiag  1:
 RMSU=  3.64D-08    CP:  9.57D-01  1.38D+00  9.78D-01  7.06D-01  1.06D+00
                    CP:  1.16D+00  1.23D+00  1.17D+00  1.16D+00  1.20D+00
                    CP:  1.05D+00
 E= -3385.57454405613     Delta-E=       -0.000000009813 Rises=F Damp=F
 DIIS: error= 3.21D-07 at cycle  12 NSaved=  12.
 NSaved=12 IEnMin=12 EnMin= -3385.57454405613     IErMin=12 ErrMin= 3.21D-07
 ErrMax= 3.21D-07  0.00D+00 EMaxC= 1.00D-01 BMatC= 5.72D-10 BMatP= 4.94D-09
 IDIUse=1 WtCom= 1.00D+00 WtEn= 0.00D+00
 Coeff-Com:  0.570D-06-0.320D-05 0.751D-04 0.176D-03 0.695D-03 0.120D-02
 Coeff-Com: -0.295D-02-0.188D-01-0.436D-01 0.339D-01 0.258D+00 0.772D+00
 Coeff:      0.570D-06-0.320D-05 0.751D-04 0.176D-03 0.695D-03 0.120D-02
 Coeff:     -0.295D-02-0.188D-01-0.436D-01 0.339D-01 0.258D+00 0.772D+00
 Gap=     0.136 Goal=   None    Shift=    0.000
 RMSDP=2.74D-08 MaxDP=6.16D-06 DE=-9.81D-09 OVMax= 3.47D-05

 Cycle  13  Pass 1  IDiag  1:
 RMSU=  1.38D-08    CP:  9.57D-01  1.38D+00  9.78D-01  7.06D-01  1.06D+00
                    CP:  1.16D+00  1.23D+00  1.17D+00  1.18D+00  1.24D+00
                    CP:  1.24D+00  1.21D+00
 E= -3385.57454405567     Delta-E=        0.000000000457 Rises=F Damp=F
 DIIS: error= 1.97D-07 at cycle  13 NSaved=  13.
 NSaved=13 IEnMin=12 EnMin= -3385.57454405613     IErMin=13 ErrMin= 1.97D-07
 ErrMax= 1.97D-07  0.00D+00 EMaxC= 1.00D-01 BMatC= 1.45D-10 BMatP= 5.72D-10
 IDIUse=1 WtCom= 1.00D+00 WtEn= 0.00D+00
 Coeff-Com:  0.439D-05-0.110D-04-0.375D-04-0.440D-04 0.101D-03 0.123D-02
 Coeff-Com:  0.316D-02-0.215D-02-0.236D-01-0.490D-01-0.736D-02 0.348D+00
 Coeff-Com:  0.730D+00
 Coeff:      0.439D-05-0.110D-04-0.375D-04-0.440D-04 0.101D-03 0.123D-02
 Coeff:      0.316D-02-0.215D-02-0.236D-01-0.490D-01-0.736D-02 0.348D+00
 Coeff:      0.730D+00
 Gap=     0.136 Goal=   None    Shift=    0.000
 RMSDP=1.37D-08 MaxDP=4.92D-06 DE= 4.57D-10 OVMax= 1.73D-05

 Cycle  14  Pass 1  IDiag  1:
 RMSU=  6.24D-09    CP:  9.57D-01  1.38D+00  9.78D-01  7.06D-01  1.06D+00
                    CP:  1.16D+00  1.23D+00  1.17D+00  1.18D+00  1.26D+00
                    CP:  1.31D+00  1.41D+00  1.28D+00
 E= -3385.57454405629     Delta-E=       -0.000000000617 Rises=F Damp=F
 DIIS: error= 9.83D-08 at cycle  14 NSaved=  14.
 NSaved=14 IEnMin=14 EnMin= -3385.57454405629     IErMin=14 ErrMin= 9.83D-08
 ErrMax= 9.83D-08  0.00D+00 EMaxC= 1.00D-01 BMatC= 4.15D-11 BMatP= 1.45D-10
 IDIUse=1 WtCom= 1.00D+00 WtEn= 0.00D+00
 Coeff-Com:  0.200D-05-0.469D-05-0.368D-04-0.631D-04-0.106D-03 0.366D-03
 Coeff-Com:  0.234D-02 0.335D-02-0.164D-02-0.314D-01-0.716D-01-0.509D-03
 Coeff-Com:  0.384D+00 0.715D+00
 Coeff:      0.200D-05-0.469D-05-0.368D-04-0.631D-04-0.106D-03 0.366D-03
 Coeff:      0.234D-02 0.335D-02-0.164D-02-0.314D-01-0.716D-01-0.509D-03
 Coeff:      0.384D+00 0.715D+00
 Gap=     0.136 Goal=   None    Shift=    0.000
 RMSDP=7.64D-09 MaxDP=2.09D-06 DE=-6.17D-10 OVMax= 9.91D-06

 Cycle  15  Pass 1  IDiag  1:
 RMSU=  3.21D-09    CP:  9.57D-01  1.38D+00  9.78D-01  7.06D-01  1.06D+00
                    CP:  1.16D+00  1.23D+00  1.17D+00  1.18D+00  1.27D+00
                    CP:  1.35D+00  1.52D+00  1.56D+00  1.25D+00
 E= -3385.57454405667     Delta-E=       -0.000000000382 Rises=F Damp=F
 DIIS: error= 4.46D-08 at cycle  15 NSaved=  15.
 NSaved=15 IEnMin=15 EnMin= -3385.57454405667     IErMin=15 ErrMin= 4.46D-08
 ErrMax= 4.46D-08  0.00D+00 EMaxC= 1.00D-01 BMatC= 7.45D-12 BMatP= 4.15D-11
 IDIUse=1 WtCom= 1.00D+00 WtEn= 0.00D+00
 Coeff-Com: -0.475D-06 0.123D-05-0.476D-05-0.129D-04-0.670D-04-0.186D-03
 Coeff-Com:  0.118D-03 0.174D-02 0.551D-02 0.120D-02-0.288D-01-0.842D-01
 Coeff-Com: -0.479D-01 0.273D+00 0.880D+00
 Coeff:     -0.475D-06 0.123D-05-0.476D-05-0.129D-04-0.670D-04-0.186D-03
 Coeff:      0.118D-03 0.174D-02 0.551D-02 0.120D-02-0.288D-01-0.842D-01
 Coeff:     -0.479D-01 0.273D+00 0.880D+00
 Gap=     0.136 Goal=   None    Shift=    0.000
 RMSDP=4.81D-09 MaxDP=1.46D-06 DE=-3.82D-10 OVMax= 6.66D-06

 Cycle  16  Pass 1  IDiag  1:
 RMSU=  1.55D-09    CP:  9.57D-01  1.38D+00  9.78D-01  7.06D-01  1.06D+00
                    CP:  1.16D+00  1.23D+00  1.17D+00  1.18D+00  1.28D+00
                    CP:  1.37D+00  1.57D+00  1.74D+00  1.58D+00  1.38D+00
 E= -3385.57454405687     Delta-E=       -0.000000000200 Rises=F Damp=F
 DIIS: error= 4.86D-08 at cycle  16 NSaved=  16.
 NSaved=16 IEnMin=16 EnMin= -3385.57454405687     IErMin=15 ErrMin= 4.46D-08
 ErrMax= 4.86D-08  0.00D+00 EMaxC= 1.00D-01 BMatC= 1.95D-12 BMatP= 7.45D-12
 IDIUse=1 WtCom= 1.00D+00 WtEn= 0.00D+00
 Coeff-Com: -0.659D-06 0.157D-05 0.605D-05 0.830D-05-0.570D-05-0.169D-03
 Coeff-Com: -0.465D-03-0.515D-04 0.308D-02 0.808D-02 0.188D-02-0.362D-01
 Coeff-Com: -0.115D+00-0.486D-01 0.410D+00 0.777D+00
 Coeff:     -0.659D-06 0.157D-05 0.605D-05 0.830D-05-0.570D-05-0.169D-03
 Coeff:     -0.465D-03-0.515D-04 0.308D-02 0.808D-02 0.188D-02-0.362D-01
 Coeff:     -0.115D+00-0.486D-01 0.410D+00 0.777D+00
 Gap=     0.136 Goal=   None    Shift=    0.000
 RMSDP=2.20D-09 MaxDP=6.52D-07 DE=-2.00D-10 OVMax= 2.84D-06

 Error on total polarization charges =  0.04167
 SCF Done:  E(RM062X) =  -3385.57454406     A.U. after   16 cycles
            NFock= 16  Conv=0.22D-08     -V/T= 2.0057
 KE= 3.366457610791D+03 PE=-2.884705614263D+04 EE= 1.160789780358D+04
 Leave Link  502 at Thu Nov  6 08:29:18 2025, MaxMem= 30870077440 cpu:          162652.5 elap:            2608.4
 (Enter /public/software/gauss/g16/l601.exe)
 Copying SCF densities to generalized density rwf, IOpCl= 0 IROHF=0.
 Hyperfine terms turned off by default for NAtoms > 100.

 **********************************************************************

            Population analysis using the SCF density.

 **********************************************************************

 Orbital symmetries:
       Occupied  (A) (A) (A) (A) (A) (A) (A) (A) (A) (A) (A) (A)
                 (A) (A) (A) (A) (A) (A) (A) (A) (A) (A) (A) (A)
                 (A) (A) (A) (A) (A) (A) (A) (A) (A) (A) (A) (A)
                 (A) (A) (A) (A) (A) (A) (A) (A) (A) (A) (A) (A)
                 (A) (A) (A) (A) (A) (A) (A) (A) (A) (A) (A) (A)
                 (A) (A) (A) (A) (A) (A) (A) (A) (A) (A) (A) (A)
                 (A) (A) (A) (A) (A) (A) (A) (A) (A) (A) (A) (A)
                 (A) (A) (A) (A) (A) (A) (A) (A) (A) (A) (A) (A)
                 (A) (A) (A) (A) (A) (A) (A) (A) (A) (A) (A) (A)
                 (A) (A) (A) (A) (A) (A) (A) (A) (A) (A) (A) (A)
                 (A) (A) (A) (A) (A) (A) (A) (A) (A) (A) (A) (A)
                 (A) (A) (A) (A) (A) (A) (A) (A) (A) (A) (A) (A)
                 (A) (A) (A) (A) (A) (A) (A) (A) (A) (A) (A) (A)
                 (A) (A) (A) (A) (A) (A) (A) (A) (A) (A) (A) (A)
                 (A) (A) (A) (A) (A) (A) (A) (A) (A) (A) (A) (A)
                 (A) (A) (A) (A) (A) (A) (A) (A) (A) (A) (A) (A)
                 (A) (A) (A) (A) (A) (A) (A) (A) (A) (A) (A) (A)
                 (A) (A) (A) (A) (A) (A) (A) (A) (A) (A) (A) (A)
                 (A) (A) (A) (A) (A) (A) (A) (A) (A) (A) (A) (A)
                 (A) (A) (A) (A) (A) (A) (A) (A) (A) (A) (A) (A)
                 (A) (A) (A) (A) (A) (A) (A) (A) (A) (A) (A) (A)
                 (A) (A) (A) (A) (A) (A) (A) (A) (A) (A) (A) (A)
                 (A) (A) (A) (A) (A) (A) (A) (A) (A) (A) (A) (A)
                 (A) (A) (A) (A) (A) (A) (A) (A) (A) (A) (A)
       Virtual   (A) (A) (A) (A) (A) (A) (A) (A) (A) (A) (A) (A)
                 (A) (A) (A) (A) (A) (A) (A) (A) (A) (A) (A) (A)
                 (A) (A) (A) (A) (A) (A) (A) (A) (A) (A) (A) (A)
                 (A) (A) (A) (A) (A) (A) (A) (A) (A) (A) (A) (A)
                 (A) (A) (A) (A) (A) (A) (A) (A) (A) (A) (A) (A)
                 (A) (A) (A) (A) (A) (A) (A) (A) (A) (A) (A) (A)
                 (A) (A) (A) (A) (A) (A) (A) (A) (A) (A) (A) (A)
                 (A) (A) (A) (A) (A) (A) (A) (A) (A) (A) (A) (A)
                 (A) (A) (A) (A) (A) (A) (A) (A) (A) (A) (A) (A)
                 (A) (A) (A) (A) (A) (A) (A) (A) (A) (A) (A) (A)
                 (A) (A) (A) (A) (A) (A) (A) (A) (A) (A) (A) (A)
                 (A) (A) (A) (A) (A) (A) (A) (A) (A) (A) (A) (A)
                 (A) (A) (A) (A) (A) (A) (A) (A) (A) (A) (A) (A)
                 (A) (A) (A) (A) (A) (A) (A) (A) (A) (A) (A) (A)
                 (A) (A) (A) (A) (A) (A) (A) (A) (A) (A) (A) (A)
                 (A) (A) (A) (A) (A) (A) (A) (A) (A) (A) (A) (A)
                 (A) (A) (A) (A) (A) (A) (A) (A) (A) (A) (A) (A)
                 (A) (A) (A) (A) (A) (A) (A) (A) (A) (A) (A) (A)
                 (A) (A) (A) (A) (A) (A) (A) (A) (A) (A) (A) (A)
                 (A) (A) (A) (A) (A) (A) (A) (A) (A) (A) (A) (A)
                 (A) (A) (A) (A) (A) (A) (A) (A) (A) (A) (A) (A)
                 (A) (A) (A) (A) (A) (A) (A) (A) (A) (A) (A) (A)
                 (A) (A) (A) (A) (A) (A) (A) (A) (A) (A) (A) (A)
                 (A) (A) (A) (A) (A) (A) (A) (A) (A) (A) (A) (A)
                 (A) (A) (A) (A) (A) (A) (A) (A) (A) (A) (A) (A)
                 (A) (A) (A) (A) (A) (A) (A) (A) (A) (A) (A) (A)
                 (A) (A) (A) (A) (A) (A) (A) (A) (A) (A) (A) (A)
                 (A) (A) (A) (A) (A) (A) (A) (A) (A) (A) (A) (A)
                 (A) (A) (A) (A) (A) (A) (A) (A) (A) (A) (A) (A)
                 (A) (A) (A) (A) (A) (A) (A) (A) (A) (A) (A) (A)
                 (A) (A) (A) (A) (A) (A) (A) (A) (A) (A) (A) (A)
                 (A) (A) (A) (A) (A) (A) (A) (A) (A) (A) (A) (A)
                 (A) (A) (A) (A) (A) (A) (A) (A) (A) (A) (A) (A)
                 (A) (A) (A) (A) (A) (A) (A) (A) (A) (A) (A) (A)
                 (A) (A) (A) (A) (A) (A) (A) (A) (A) (A) (A) (A)
                 (A) (A) (A) (A) (A) (A) (A) (A) (A) (A) (A) (A)
                 (A) (A) (A) (A) (A) (A) (A) (A) (A) (A) (A) (A)
                 (A) (A) (A) (A) (A) (A) (A) (A) (A) (A) (A) (A)
                 (A) (A) (A) (A) (A) (A) (A) (A) (A) (A) (A) (A)
                 (A) (A) (A) (A) (A) (A) (A) (A) (A) (A) (A) (A)
                 (A) (A) (A) (A) (A) (A) (A) (A) (A) (A) (A) (A)
                 (A) (A) (A) (A) (A) (A) (A) (A) (A) (A) (A) (A)
                 (A) (A) (A) (A) (A) (A) (A) (A) (A) (A) (A) (A)
                 (A) (A) (A) (A) (A) (A) (A) (A) (A) (A) (A) (A)
                 (A) (A) (A) (A) (A) (A) (A) (A) (A) (A) (A) (A)
                 (A) (A) (A) (A) (A) (A) (A) (A) (A) (A) (A) (A)
                 (A) (A) (A) (A) (A) (A) (A) (A) (A) (A) (A) (A)
                 (A) (A) (A) (A) (A) (A) (A) (A) (A) (A) (A) (A)
                 (A) (A) (A) (A) (A) (A) (A) (A) (A) (A) (A) (A)
                 (A) (A) (A) (A) (A) (A) (A) (A) (A) (A) (A) (A)
                 (A) (A) (A) (A) (A) (A) (A) (A) (A) (A) (A) (A)
                 (A) (A) (A) (A) (A) (A) (A) (A) (A) (A) (A) (A)
                 (A) (A) (A) (A) (A) (A) (A) (A) (A) (A) (A) (A)
                 (A) (A) (A) (A) (A) (A) (A) (A) (A) (A) (A) (A)
                 (A) (A) (A) (A) (A) (A) (A) (A) (A) (A) (A) (A)
                 (A) (A) (A) (A) (A) (A) (A) (A) (A) (A) (A) (A)
                 (A) (A) (A) (A) (A) (A) (A) (A) (A) (A) (A) (A)
                 (A) (A) (A) (A) (A) (A) (A) (A) (A) (A) (A) (A)
                 (A) (A) (A) (A) (A) (A) (A) (A) (A) (A) (A) (A)
                 (A) (A) (A) (A) (A) (A) (A) (A) (A) (A) (A) (A)
                 (A) (A) (A) (A) (A) (A) (A) (A) (A) (A) (A) (A)
                 (A) (A) (A) (A) (A) (A) (A) (A) (A) (A) (A) (A)
                 (A) (A) (A) (A) (A) (A) (A) (A) (A) (A) (A) (A)
                 (A) (A) (A) (A) (A) (A) (A) (A) (A) (A) (A) (A)
                 (A) (A) (A) (A) (A) (A) (A) (A) (A) (A) (A) (A)
                 (A) (A) (A) (A) (A) (A) (A) (A) (A) (A) (A) (A)
                 (A) (A) (A) (A) (A) (A) (A) (A) (A) (A) (A) (A)
                 (A) (A) (A) (A) (A) (A) (A) (A) (A) (A) (A) (A)
                 (A) (A) (A) (A) (A) (A) (A) (A) (A) (A) (A) (A)
                 (A) (A) (A) (A) (A) (A) (A) (A) (A) (A) (A) (A)
                 (A) (A) (A) (A) (A) (A) (A) (A) (A) (A) (A) (A)
                 (A) (A) (A) (A) (A) (A) (A) (A) (A) (A) (A) (A)
                 (A) (A) (A) (A) (A) (A) (A) (A) (A) (A) (A) (A)
                 (A) (A) (A) (A) (A) (A) (A) (A) (A) (A) (A) (A)
                 (A) (A) (A) (A) (A) (A) (A) (A) (A) (A) (A) (A)
                 (A) (A) (A) (A) (A) (A) (A) (A) (A) (A) (A) (A)
                 (A) (A) (A) (A) (A) (A) (A) (A) (A) (A) (A) (A)
                 (A) (A) (A) (A) (A) (A) (A) (A) (A) (A) (A) (A)
                 (A) (A) (A) (A) (A) (A) (A) (A) (A) (A) (A) (A)
                 (A) (A) (A) (A) (A) (A) (A) (A) (A) (A) (A) (A)
                 (A) (A) (A) (A) (A) (A) (A) (A) (A) (A) (A) (A)
                 (A) (A) (A) (A) (A) (A) (A) (A) (A) (A) (A) (A)
                 (A) (A) (A) (A) (A) (A) (A) (A) (A) (A) (A) (A)
                 (A) (A) (A) (A) (A) (A) (A) (A) (A) (A) (A) (A)
                 (A) (A) (A) (A) (A) (A) (A) (A) (A) (A) (A) (A)
                 (A) (A) (A) (A) (A) (A) (A) (A) (A) (A) (A) (A)
                 (A) (A) (A) (A) (A) (A) (A) (A) (A) (A) (A) (A)
                 (A) (A) (A) (A) (A) (A) (A) (A) (A) (A) (A) (A)
                 (A) (A) (A) (A) (A) (A) (A) (A) (A) (A) (A) (A)
                 (A) (A) (A) (A) (A) (A) (A) (A) (A) (A) (A) (A)
                 (A) (A) (A) (A) (A) (A) (A) (A) (A) (A) (A) (A)
                 (A) (A) (A) (A) (A) (A) (A) (A) (A) (A) (A) (A)
                 (A) (A) (A) (A) (A) (A) (A) (A) (A) (A) (A) (A)
                 (A) (A) (A) (A) (A) (A) (A) (A) (A) (A) (A) (A)
                 (A) (A) (A) (A) (A) (A) (A) (A) (A) (A) (A) (A)
                 (A) (A) (A) (A) (A) (A) (A) (A) (A) (A) (A) (A)
                 (A) (A) (A) (A) (A) (A) (A) (A) (A) (A) (A) (A)
                 (A) (A) (A) (A) (A) (A) (A) (A) (A) (A) (A) (A)
                 (A) (A) (A) (A) (A) (A) (A) (A) (A) (A) (A) (A)
                 (A) (A) (A) (A) (A) (A) (A) (A) (A) (A) (A) (A)
                 (A) (A) (A) (A) (A) (A) (A) (A) (A) (A) (A) (A)
                 (A) (A) (A) (A) (A) (A) (A) (A) (A) (A) (A) (A)
                 (A) (A) (A) (A) (A) (A) (A) (A) (A) (A) (A) (A)
                 (A) (A) (A) (A) (A) (A) (A) (A) (A) (A) (A) (A)
                 (A) (A) (A) (A) (A) (A) (A) (A) (A) (A) (A) (A)
                 (A) (A) (A) (A) (A) (A) (A) (A) (A) (A) (A) (A)
                 (A) (A) (A) (A) (A) (A) (A) (A) (A) (A) (A) (A)
                 (A) (A) (A) (A) (A) (A) (A) (A) (A) (A) (A) (A)
                 (A) (A) (A) (A) (A) (A) (A) (A) (A) (A) (A) (A)
                 (A) (A) (A) (A) (A) (A) (A) (A) (A) (A) (A) (A)
                 (A) (A) (A) (A) (A) (A) (A) (A) (A) (A) (A) (A)
                 (A) (A) (A) (A) (A) (A) (A) (A) (A) (A) (A) (A)
                 (A) (A) (A) (A) (A) (A) (A) (A) (A) (A) (A) (A)
                 (A) (A) (A) (A) (A) (A) (A) (A) (A) (A) (A) (A)
                 (A) (A) (A) (A) (A) (A) (A) (A) (A) (A) (A) (A)
                 (A) (A) (A) (A) (A) (A) (A) (A) (A) (A) (A) (A)
                 (A) (A) (A) (A) (A) (A) (A) (A) (A) (A) (A) (A)
                 (A) (A) (A) (A) (A) (A) (A) (A) (A) (A) (A) (A)
                 (A) (A) (A) (A) (A) (A) (A) (A) (A) (A) (A) (A)
                 (A) (A) (A) (A) (A) (A) (A) (A) (A) (A) (A) (A)
                 (A) (A) (A) (A) (A) (A) (A) (A) (A) (A) (A) (A)
                 (A) (A) (A) (A) (A) (A) (A) (A) (A) (A) (A) (A)
                 (A) (A) (A) (A) (A) (A) (A) (A) (A) (A) (A) (A)
                 (A) (A) (A) (A) (A) (A) (A) (A) (A) (A) (A) (A)
                 (A) (A) (A) (A) (A) (A) (A) (A) (A) (A) (A) (A)
                 (A) (A) (A) (A) (A) (A) (A) (A) (A) (A) (A) (A)
                 (A) (A) (A) (A) (A) (A) (A) (A) (A) (A) (A) (A)
                 (A) (A) (A) (A) (A) (A) (A) (A) (A) (A) (A) (A)
                 (A) (A) (A) (A) (A) (A) (A) (A) (A) (A) (A) (A)
                 (A) (A) (A) (A) (A) (A) (A) (A) (A) (A) (A) (A)
                 (A) (A) (A) (A) (A) (A) (A) (A) (A) (A) (A) (A)
                 (A) (A) (A) (A) (A) (A) (A) (A) (A) (A) (A) (A)
                 (A) (A) (A) (A) (A) (A) (A) (A) (A) (A) (A) (A)
                 (A) (A) (A) (A) (A) (A) (A) (A) (A) (A) (A) (A)
                 (A) (A) (A) (A) (A) (A) (A) (A) (A) (A) (A) (A)
                 (A) (A) (A) (A) (A) (A) (A) (A) (A) (A) (A) (A)
                 (A) (A) (A) (A) (A) (A) (A) (A) (A) (A) (A) (A)
                 (A) (A) (A) (A) (A) (A) (A) (A) (A) (A) (A) (A)
                 (A) (A) (A) (A) (A) (A) (A) (A) (A) (A) (A) (A)
                 (A) (A) (A) (A) (A) (A) (A) (A) (A) (A) (A) (A)
                 (A) (A) (A) (A) (A) (A) (A) (A) (A) (A) (A) (A)
                 (A) (A) (A) (A) (A) (A) (A) (A) (A) (A) (A) (A)
                 (A) (A) (A) (A) (A) (A) (A) (A) (A) (A) (A) (A)
                 (A) (A) (A) (A) (A) (A) (A) (A) (A) (A) (A) (A)
                 (A) (A) (A) (A) (A) (A) (A) (A) (A) (A) (A) (A)
                 (A) (A) (A) (A) (A) (A) (A) (A) (A) (A) (A) (A)
                 (A) (A) (A) (A) (A) (A) (A) (A) (A) (A) (A) (A)
                 (A) (A) (A) (A) (A) (A) (A) (A) (A) (A) (A) (A)
                 (A) (A) (A) (A) (A) (A) (A) (A) (A) (A) (A) (A)
                 (A) (A) (A) (A) (A) (A) (A) (A) (A) (A) (A) (A)
                 (A) (A) (A) (A) (A) (A) (A) (A) (A) (A) (A) (A)
                 (A) (A) (A) (A) (A) (A) (A) (A) (A) (A) (A) (A)
                 (A) (A) (A) (A) (A) (A) (A) (A) (A) (A) (A) (A)
                 (A) (A) (A) (A) (A) (A) (A) (A) (A) (A) (A) (A)
                 (A) (A) (A) (A) (A) (A) (A) (A) (A) (A) (A) (A)
                 (A) (A) (A) (A) (A) (A) (A) (A) (A) (A) (A) (A)
                 (A) (A) (A) (A) (A) (A) (A) (A) (A) (A) (A) (A)
                 (A) (A) (A) (A) (A) (A) (A) (A) (A) (A) (A) (A)
                 (A) (A) (A) (A) (A) (A) (A) (A) (A) (A) (A) (A)
                 (A) (A) (A) (A) (A) (A) (A) (A) (A) (A) (A) (A)
                 (A) (A) (A) (A) (A) (A) (A) (A) (A) (A) (A) (A)
                 (A) (A) (A) (A) (A) (A) (A) (A) (A) (A) (A) (A)
                 (A) (A) (A) (A) (A) (A) (A) (A) (A) (A) (A) (A)
                 (A) (A) (A) (A) (A) (A) (A) (A) (A) (A) (A) (A)
                 (A) (A) (A) (A) (A) (A) (A) (A) (A) (A) (A) (A)
                 (A) (A) (A) (A) (A) (A) (A) (A) (A) (A) (A) (A)
                 (A) (A) (A) (A) (A) (A) (A) (A) (A) (A) (A) (A)
                 (A) (A) (A) (A) (A) (A) (A) (A) (A) (A) (A) (A)
                 (A) (A) (A) (A) (A) (A) (A) (A) (A) (A) (A) (A)
                 (A) (A) (A) (A) (A) (A) (A) (A) (A) (A) (A) (A)
                 (A) (A) (A) (A) (A) (A) (A) (A) (A) (A) (A) (A)
                 (A) (A) (A) (A) (A) (A) (A) (A) (A) (A) (A) (A)
                 (A) (A) (A) (A) (A) (A) (A) (A) (A) (A) (A) (A)
                 (A) (A) (A) (A) (A) (A) (A) (A) (A) (A) (A) (A)
                 (A) (A) (A) (A) (A) (A) (A) (A) (A) (A) (A) (A)
                 (A) (A) (A) (A) (A) (A) (A) (A) (A) (A) (A) (A)
                 (A) (A) (A) (A) (A) (A) (A) (A) (A) (A) (A) (A)
                 (A) (A) (A) (A) (A) (A) (A) (A) (A) (A) (A) (A)
                 (A) (A) (A) (A) (A) (A) (A) (A) (A) (A) (A) (A)
                 (A) (A) (A) (A) (A) (A) (A) (A) (A) (A) (A) (A)
                 (A) (A) (A) (A) (A) (A) (A) (A) (A) (A) (A) (A)
                 (A) (A) (A) (A) (A) (A) (A) (A) (A) (A) (A) (A)
                 (A) (A) (A) (A) (A) (A) (A) (A) (A) (A) (A) (A)
                 (A) (A) (A) (A) (A) (A) (A) (A) (A) (A) (A) (A)
                 (A) (A) (A) (A) (A) (A) (A) (A) (A) (A) (A) (A)
                 (A) (A) (A) (A) (A) (A) (A) (A) (A) (A) (A) (A)
                 (A) (A) (A) (A) (A) (A) (A) (A) (A) (A) (A) (A)
                 (A) (A) (A) (A) (A) (A) (A) (A) (A) (A) (A) (A)
                 (A) (A) (A) (A) (A) (A) (A) (A) (A) (A) (A) (A)
                 (A) (A) (A) (A) (A) (A) (A) (A) (A) (A) (A) (A)
                 (A) (A) (A) (A) (A) (A) (A) (A) (A) (A) (A) (A)
                 (A) (A) (A) (A) (A) (A) (A) (A) (A) (A) (A) (A)
                 (A) (A) (A) (A) (A) (A) (A) (A) (A) (A) (A) (A)
                 (A) (A) (A) (A) (A) (A) (A) (A) (A) (A) (A) (A)
                 (A) (A) (A) (A) (A) (A) (A) (A) (A) (A) (A) (A)
                 (A) (A) (A) (A) (A) (A) (A) (A) (A) (A) (A) (A)
                 (A) (A) (A) (A) (A) (A) (A) (A) (A) (A) (A) (A)
                 (A) (A) (A) (A) (A) (A) (A) (A) (A) (A) (A) (A)
                 (A) (A) (A) (A) (A) (A) (A) (A) (A) (A) (A) (A)
                 (A) (A) (A) (A) (A) (A) (A) (A) (A) (A) (A) (A)
                 (A) (A) (A) (A) (A) (A) (A) (A) (A) (A) (A) (A)
                 (A) (A) (A) (A) (A) (A) (A) (A) (A) (A) (A) (A)
                 (A) (A) (A) (A) (A) (A) (A) (A) (A) (A) (A) (A)
                 (A) (A) (A) (A) (A) (A) (A) (A) (A) (A) (A) (A)
                 (A) (A) (A) (A) (A) (A) (A) (A) (A) (A) (A) (A)
                 (A) (A) (A) (A) (A) (A) (A) (A) (A) (A) (A) (A)
                 (A) (A) (A) (A) (A) (A) (A) (A) (A) (A) (A) (A)
                 (A) (A) (A) (A) (A) (A) (A) (A) (A) (A) (A) (A)
                 (A) (A) (A) (A) (A) (A) (A) (A) (A) (A) (A) (A)
                 (A) (A) (A) (A) (A) (A) (A) (A) (A) (A) (A) (A)
                 (A) (A) (A) (A) (A) (A) (A) (A) (A) (A) (A) (A)
                 (A) (A) (A) (A) (A) (A) (A) (A) (A) (A) (A) (A)
                 (A) (A) (A) (A) (A) (A) (A) (A) (A) (A) (A) (A)
                 (A) (A) (A) (A) (A) (A) (A) (A) (A) (A) (A) (A)
                 (A) (A) (A) (A) (A) (A) (A) (A) (A) (A) (A) (A)
                 (A) (A) (A) (A) (A) (A) (A) (A) (A) (A) (A) (A)
                 (A) (A) (A) (A) (A) (A) (A) (A) (A) (A) (A) (A)
                 (A) (A) (A) (A) (A) (A) (A) (A) (A) (A) (A) (A)
                 (A) (A) (A) (A) (A) (A) (A) (A) (A) (A) (A) (A)
                 (A) (A) (A) (A) (A) (A) (A) (A) (A) (A) (A) (A)
                 (A) (A) (A) (A) (A) (A) (A) (A) (A) (A) (A) (A)
[...]
 Alpha virt. eigenvalues --    5.14764   5.15107   5.15389   5.15586   5.16085
 Alpha virt. eigenvalues --    5.16705   5.16783   5.17106   5.17375   5.17545
 Alpha virt. eigenvalues --    5.17604   5.17722   5.18600   5.18944   5.19261
 Alpha virt. eigenvalues --    5.19717   5.20075   5.20590   5.21009   5.21114
 Alpha virt. eigenvalues --    5.21134   5.21257   5.21304   5.21827   5.22670
 Alpha virt. eigenvalues --    5.23185   5.23758   5.24524   5.24817   5.25731
 Alpha virt. eigenvalues --    5.26291   5.26409   5.26534   5.26611   5.26801
 Alpha virt. eigenvalues --    5.27088   5.27368   5.27550   5.27746   5.28005
 Alpha virt. eigenvalues --    5.28036   5.28358   5.28472   5.28858   5.28887
 Alpha virt. eigenvalues --    5.28898   5.28903   5.29353   5.29571   5.29616
 Alpha virt. eigenvalues --    5.29786   5.30095   5.30546   5.30624   5.30910
 Alpha virt. eigenvalues --    5.30982   5.30998   5.31033   5.31226   5.31416
 Alpha virt. eigenvalues --    5.31612   5.32026   5.32100   5.32942   5.33210
 Alpha virt. eigenvalues --    5.33804   5.33962   5.34110   5.34346   5.34470
 Alpha virt. eigenvalues --    5.34827   5.34855   5.34883   5.35249   5.35501
 Alpha virt. eigenvalues --    5.35507   5.35958   5.35984   5.36174   5.36329
 Alpha virt. eigenvalues --    5.36341   5.36582   5.36713   5.36983   5.37425
 Alpha virt. eigenvalues --    5.37460   5.37669   5.38051   5.38258   5.38430
 Alpha virt. eigenvalues --    5.39017   5.39381   5.39753   5.39914   5.40108
 Alpha virt. eigenvalues --    5.40230   5.40354   5.40443   5.40507   5.40761
 Alpha virt. eigenvalues --    5.40925   5.40994   5.41124   5.41620   5.41851
 Alpha virt. eigenvalues --    5.42133   5.42557   5.42685   5.42836   5.42902
 Alpha virt. eigenvalues --    5.42994   5.43098   5.43446   5.43469   5.44181
 Alpha virt. eigenvalues --    5.44666   5.44685   5.44827   5.45217   5.45356
 Alpha virt. eigenvalues --    5.45359   5.45579   5.45609   5.45756   5.45809
 Alpha virt. eigenvalues --    5.46360   5.46598   5.46606   5.46629   5.46842
 Alpha virt. eigenvalues --    5.46877   5.47018   5.47333   5.47524   5.47789
 Alpha virt. eigenvalues --    5.47844   5.48237   5.48403   5.48766   5.49183
 Alpha virt. eigenvalues --    5.49185   5.49299   5.49553   5.49800   5.49853
 Alpha virt. eigenvalues --    5.50501   5.50677   5.50725   5.51267   5.51331
 Alpha virt. eigenvalues --    5.51340   5.51953   5.51959   5.52250   5.52435
 Alpha virt. eigenvalues --    5.52846   5.53197   5.53540   5.53555   5.53795
 Alpha virt. eigenvalues --    5.54768   5.54770   5.54909   5.55127   5.55171
 Alpha virt. eigenvalues --    5.56120   5.56234   5.56560   5.56698   5.57246
 Alpha virt. eigenvalues --    5.57711   5.58123   5.58367   5.58568   5.58766
 Alpha virt. eigenvalues --    5.59027   5.59203   5.59218   5.59316   5.59667
 Alpha virt. eigenvalues --    5.59834   5.60219   5.60503   5.61112   5.61350
 Alpha virt. eigenvalues --    5.61634   5.61905   5.62212   5.62363   5.62389
 Alpha virt. eigenvalues --    5.62663   5.62882   5.63473   5.63917   5.64158
 Alpha virt. eigenvalues --    5.64515   5.64540   5.64631   5.65020   5.65367
 Alpha virt. eigenvalues --    5.65433   5.65903   5.65972   5.66019   5.66539
 Alpha virt. eigenvalues --    5.66555   5.66592   5.67158   5.67615   5.67799
 Alpha virt. eigenvalues --    5.68271   5.68404   5.68852   5.69033   5.69393
 Alpha virt. eigenvalues --    5.69568   5.69652   5.69779   5.69979   5.69998
 Alpha virt. eigenvalues --    5.70003   5.70879   5.70918   5.70940   5.71361
 Alpha virt. eigenvalues --    5.71841   5.72460   5.73161   5.73544   5.73603
 Alpha virt. eigenvalues --    5.74755   5.74766   5.74957   5.74964   5.76139
 Alpha virt. eigenvalues --    5.76985   5.77235   5.79572   5.79881   5.80521
 Alpha virt. eigenvalues --    5.82108   5.85376   5.86267   5.87161   5.87562
 Alpha virt. eigenvalues --    5.89111   5.91266   5.91454   5.93077   5.94368
 Alpha virt. eigenvalues --    5.96612   5.98798   5.99393   6.01523   6.02323
 Alpha virt. eigenvalues --    6.02560   6.02838   6.04031   6.04593   6.05235
 Alpha virt. eigenvalues --    6.05899   6.07657   6.13618   6.17560   6.17988
 Alpha virt. eigenvalues --    6.19362   6.22338   6.22426   6.24896   6.26292
 Alpha virt. eigenvalues --    6.28027   6.29044   6.35354   6.40391   6.41303
 Alpha virt. eigenvalues --    6.41789   6.42246   6.42406   6.43665   6.57782
 Alpha virt. eigenvalues --    6.73099   6.73433   6.73733   6.76430   6.77423
 Alpha virt. eigenvalues --    6.80756   6.83040   6.84730   6.85218   6.87111
 Alpha virt. eigenvalues --    6.93431   6.93715   6.93998   6.94188   6.96953
 Alpha virt. eigenvalues --    6.98457   6.98831   6.99636   7.05088   7.08452
 Alpha virt. eigenvalues --    7.11330   7.17060   7.20356   7.22155   7.24078
 Alpha virt. eigenvalues --    7.26681   7.32182   7.33371   7.33630   7.33796
 Alpha virt. eigenvalues --    7.34669   7.45889   7.47262   7.47886   7.52150
 Alpha virt. eigenvalues --    8.44574   8.46332   8.56417   8.58487   8.82155
 Alpha virt. eigenvalues --    8.87139   8.90649   8.91266   8.91884   8.99697
 Alpha virt. eigenvalues --   15.87502  22.86427  22.87870  22.89693  22.92351
 Alpha virt. eigenvalues --   22.95558  22.97171  23.11167  23.12258  23.13019
 Alpha virt. eigenvalues --   23.13955  23.15290  23.17564  23.18528  23.22000
 Alpha virt. eigenvalues --   23.25971  23.27223  23.27578  23.29704  23.30394
 Alpha virt. eigenvalues --   23.30708  23.30768  23.30881  23.32059  23.32233
 Alpha virt. eigenvalues --   23.33689  23.33707  23.35862  23.36659  23.36715
 Alpha virt. eigenvalues --   23.36779  23.37853  23.39361  23.39436  23.41010
 Alpha virt. eigenvalues --   23.42587  23.42679  23.46265  23.46358  23.47413
 Alpha virt. eigenvalues --   23.49134  23.49482  23.49531  23.50933  23.50934
 Alpha virt. eigenvalues --   23.51658  23.51680  23.51801  23.51802  23.52878
 Alpha virt. eigenvalues --   23.53027  23.55251  23.61051  23.67112  23.68157
 Alpha virt. eigenvalues --   23.68158  23.71458  23.76899  23.77238  23.77964
 Alpha virt. eigenvalues --   23.80048  24.00901  24.02453  24.10232  24.17366
 Alpha virt. eigenvalues --   24.32056  24.33902  24.41425  24.45235  32.58354
 Alpha virt. eigenvalues --   33.12695  33.18258  33.30951  44.20249  44.23906
 Alpha virt. eigenvalues --   44.63720  44.64398  57.32844  57.56495
          Condensed to atoms (all electrons):
 Mulliken charges:
               1
     1  B    0.362812
     2  N   -0.096626
     3  C    0.113601
     4  C    0.098394
     5  C    0.134265
     6  N   -0.089384
     7  C    0.048337
     8  C    0.072140
     9  C    0.061354
    10  C    0.085293
    11  C    0.065437
    12  C    0.080087
    13  C   -0.402210
    14  C   -0.437201
    15  F   -0.337290
    16  F   -0.354852
    17  C   -0.443382
    18  C   -0.175399
    19  C   -0.290445
    20  C   -0.154588
    21  C   -0.155970
    22  C    0.221250
    23  C   -0.131122
    24  C   -0.178747
    25  O   -0.290989
    26  C   -0.099309
    27  C   -0.195173
    28  C   -0.210730
    29  C   -0.202763
    30  C   -0.189562
    31  C   -0.193118
    32  C   -0.191418
    33  C   -0.188296
    34  C   -0.186122
    35  C   -0.179223
    36  C   -0.157325
    37  C   -0.365125
    38  C   -0.136008
    39  C   -0.003030
    40  C   -0.025517
    41  C   -0.133747
    42  C   -0.109874
    43  C   -0.020777
    44  C   -0.110651
    45  C   -0.133161
    46  N    0.488252
    47  O   -0.375934
    48  O   -0.375952
    49  C   -0.087977
    50  C   -0.118811
    51  C   -0.025736
    52  C   -0.162536
    53  C   -0.203978
    54  C    0.154718
    55  C   -0.195439
    56  C   -0.154908
    57  N   -0.201966
    58  C   -0.292483
    59  C   -0.292630
    60  C   -0.010159
    61  C    0.004238
    62  C   -0.131220
    63  C   -0.210132
    64  C    0.227345
    65  C   -0.164146
    66  C   -0.181719
    67  O   -0.285718
    68  C   -0.097807
    69  C   -0.195902
    70  C   -0.210956
    71  C   -0.202728
    72  C   -0.189683
    73  C   -0.192852
    74  C   -0.191417
    75  C   -0.188050
    76  C   -0.186081
    77  C   -0.179029
    78  C   -0.157322
    79  C   -0.365022
    80  H    0.162294
    81  H    0.158146
    82  H    0.130108
    83  H    0.125454
    84  H    0.168379
    85  H    0.158747
    86  H    0.158771
    87  H    0.127011
    88  H    0.170827
    89  H    0.126871
    90  H    0.171157
    91  H    0.163896
    92  H    0.160419
    93  H    0.169461
    94  H    0.139484
    95  H    0.140810
    96  H    0.107930
    97  H    0.107493
    98  H    0.105631
    99  H    0.106065
   100  H    0.100867
   101  H    0.100486
   102  H    0.097560
   103  H    0.097784
   104  H    0.096913
   105  H    0.096675
   106  H    0.096146
   107  H    0.096239
   108  H    0.095789
   109  H    0.095674
   110  H    0.094593
   111  H    0.094579
   112  H    0.092366
   113  H    0.092341
   114  H    0.089066
   115  H    0.089096
   116  H    0.117819
   117  H    0.107100
   118  H    0.107136
   119  H    0.165887
   120  H    0.194518
   121  H    0.194563
   122  H    0.166339
   123  H    0.148415
   124  H    0.157995
   125  H    0.157840
   126  H    0.150614
   127  H    0.156647
   128  H    0.134168
   129  H    0.130803
   130  H    0.134327
   131  H    0.156675
   132  H    0.130855
   133  H    0.098946
   134  H    0.149990
   135  H    0.160645
   136  H    0.152618
   137  H    0.151279
   138  H    0.141977
   139  H    0.141855
   140  H    0.107762
   141  H    0.108274
   142  H    0.106316
   143  H    0.105962
   144  H    0.100490
   145  H    0.100836
   146  H    0.097878
   147  H    0.097508
   148  H    0.096615
   149  H    0.096809
   150  H    0.096285
   151  H    0.096030
   152  H    0.095606
   153  H    0.095681
   154  H    0.094612
   155  H    0.094455
   156  H    0.092289
   157  H    0.092267
   158  H    0.089090
   159  H    0.089024
   160  H    0.117785
   161  H    0.107091
   162  H    0.107101
 Sum of Mulliken charges =  -0.00000
 Mulliken charges with hydrogens summed into heavy atoms:
               1
     1  B    0.362812
     2  N   -0.096626
     3  C    0.113601
     4  C    0.098394
     5  C    0.134265
     6  N   -0.089384
     7  C    0.048337
     8  C    0.072140
     9  C    0.061354
    10  C    0.085293
    11  C    0.065437
    12  C    0.080087
    13  C    0.048338
    14  C    0.015379
    15  F   -0.337290
    16  F   -0.354852
    17  C    0.013227
    18  C   -0.048528
    19  C   -0.290445
    20  C    0.016569
    21  C    0.007926
    22  C    0.221250
    23  C    0.029297
    24  C   -0.009286
    25  O   -0.290989
    26  C    0.180985
    27  C    0.020250
    28  C    0.000967
    29  C   -0.001410
    30  C    0.005782
    31  C    0.000471
    32  C    0.000968
    33  C    0.003166
    34  C    0.003050
    35  C    0.005483
    36  C    0.020837
    37  C   -0.033069
    38  C   -0.136008
    39  C   -0.003030
    40  C   -0.025517
    41  C    0.032140
    42  C    0.084643
    43  C   -0.020777
    44  C    0.083912
    45  C    0.033178
    46  N    0.488252
    47  O   -0.375934
    48  O   -0.375952
    49  C   -0.087977
    50  C   -0.118811
    51  C   -0.025736
    52  C   -0.014121
    53  C   -0.045983
    54  C    0.154718
    55  C   -0.037599
    56  C   -0.004294
    57  N   -0.201966
    58  C    0.129135
    59  C    0.129227
    60  C    0.088787
    61  C    0.004238
    62  C    0.018771
    63  C   -0.049486
    64  C    0.227345
    65  C   -0.011528
    66  C   -0.030439
    67  O   -0.285718
    68  C    0.186025
    69  C    0.020134
    70  C    0.001322
    71  C   -0.001402
    72  C    0.005703
    73  C    0.000571
    74  C    0.000897
    75  C    0.003237
    76  C    0.002987
    77  C    0.005527
    78  C    0.020792
    79  C   -0.033045
 Electronic spatial extent (au):  <R**2>=         266386.8024
 Charge=             -0.0000 electrons
 Dipole moment (field-independent basis, Debye):
    X=              0.7868    Y=            -14.4146    Z=             -0.6782  Tot=             14.4519
 Quadrupole moment (field-independent basis, Debye-Ang):
   XX=           -371.7193   YY=           -532.5700   ZZ=           -486.5173
   XY=            -30.2374   XZ=             10.8001   YZ=             14.6817
 Traceless Quadrupole moment (field-independent basis, Debye-Ang):
   XX=             91.8829   YY=            -68.9678   ZZ=            -22.9151
   XY=            -30.2374   XZ=             10.8001   YZ=             14.6817
 Octapole moment (field-independent basis, Debye-Ang**2):
  XXX=           -148.8297  YYY=          -3414.3929  ZZZ=             -7.1024  XYY=           -812.7758
  XXY=           -142.7348  XXZ=             76.5433  XZZ=             -8.8469  YZZ=             30.9078
  YYZ=            -89.7918  XYZ=            -42.2533
 Hexadecapole moment (field-independent basis, Debye-Ang**3):
 XXXX=        -289286.1576 YYYY=         -97935.4863 ZZZZ=          -2541.5180 XXXY=            -85.1410
 XXXZ=           1311.9888 YYYX=          -7376.6510 YYYZ=           2591.5029 ZZZX=           -179.0181
 ZZZY=            -19.8982 XXYY=         -63030.1937 XXZZ=         -49329.5254 YYZZ=         -13128.5840
 XXYZ=            150.7812 YYXZ=            477.1324 ZZXY=             52.9486
 N-N= 1.048712618420D+04 E-N=-2.884705615169D+04  KE= 3.366457610791D+03
 Leave Link  601 at Thu Nov  6 08:29:21 2025, MaxMem= 30870077440 cpu:             202.4 elap:               3.8
 (Enter /public/software/gauss/g16/l9999.exe)
 1\1\GINC-CU054\SP\RM062X\def2TZVPP\C68H83B1F2N4O4\BAIDING\06-Nov-2025\
 0\\#p M062X/DEF2TZVPP scrf=(solvent=water) em=GD3\\Energy calculation 
 for M100034546_sp\\0,1\B,0,-0.6997,1.564083,0.044917\N,0,0.489668,2.54
 3239,-0.127983\C,0,1.82628,2.172463,-0.355976\C,0,2.174715,0.80817,-0.
 475171\C,0,1.190843,-0.188939,-0.41809\N,0,-0.163333,0.140156,-0.26734
 1\C,0,1.296105,-1.615011,-0.482776\C,0,-0.006488,-2.118927,-0.375159\C
 ,0,-0.902211,-0.998941,-0.236534\C,0,0.404553,3.883044,-0.065612\C,0,1
 .701957,4.428789,-0.264135\C,0,2.60452,3.355079,-0.45134\C,0,-0.866486
 ,4.622484,0.167992\C,0,4.06807,3.527626,-0.706952\F,0,-1.186493,1.6212
 81,1.356409\F,0,-1.724676,1.909262,-0.847202\C,0,2.511832,-2.471793,-0
 .637699\C,0,-2.33432,-0.964612,-0.111836\C,0,3.606467,0.436969,-0.6699
 44\C,0,4.102392,0.140047,-1.949794\C,0,5.438566,-0.193841,-2.132459\C,
 0,6.309689,-0.248458,-1.032778\C,0,5.826902,0.041188,0.249902\C,0,4.48
 4029,0.386928,0.417808\O,0,7.602961,-0.591068,-1.314207\C,0,8.547311,-
 0.67185,-0.228946\C,0,9.894595,-1.058581,-0.816729\C,0,10.980554,-1.17
 4716,0.259174\C,0,12.352507,-1.550135,-0.312531\C,0,13.444499,-1.67161
 7,0.756363\C,0,14.820078,-2.036677,0.186366\C,0,15.912625,-2.161487,1.
 254655\C,0,17.289974,-2.519094,0.684127\C,0,18.38206,-2.647067,1.75252
 4\C,0,19.760356,-2.99998,1.181877\C,0,20.852061,-3.131073,2.250154\C,0
 ,22.224601,-3.481594,1.67092\C,0,2.006938,5.803626,-0.27354\C,0,2.2705
 74,6.99505,-0.281538\C,0,2.57397,8.379062,-0.289649\C,0,3.900945,8.820
 799,-0.500739\C,0,4.199417,10.173326,-0.508302\C,0,3.168155,11.09542,-
 0.304104\C,0,1.846485,10.690329,-0.092874\C,0,1.553135,9.336701,-0.086
 401\N,0,3.478451,12.512159,-0.311529\O,0,2.559364,13.322389,-0.129794\
 O,0,4.651801,12.861716,-0.499212\C,0,-0.359726,-3.485906,-0.438206\C,0
 ,-0.623426,-4.675678,-0.505603\C,0,-0.968918,-6.05226,-0.580983\C,0,-2
 .317892,-6.46697,-0.578148\C,0,-2.661969,-7.807429,-0.655637\C,0,-1.67
 1225,-8.819668,-0.729647\C,0,-0.317401,-8.397568,-0.748684\C,0,0.01923
 9,-7.05486,-0.67157\N,0,-2.011576,-10.162791,-0.760421\C,0,-0.994017,-
 11.132079,-1.162545\C,0,-3.393114,-10.525983,-1.071403\C,0,-3.115769,-
 2.039152,0.173871\C,0,-4.56472,-2.051423,0.294892\C,0,-5.20482,-3.2683
 24,0.621792\C,0,-6.581857,-3.351939,0.747231\C,0,-7.375604,-2.210247,0
 .547791\C,0,-6.764497,-0.987249,0.22308\C,0,-5.381295,-0.918902,0.1012
 18\O,0,-8.719031,-2.386868,0.690487\C,0,-9.596702,-1.260081,0.488467\C
 ,0,-11.021566,-1.743878,0.700878\C,0,-12.046824,-0.621512,0.502288\C,0
 ,-13.492086,-1.089025,0.709284\C,0,-14.527243,0.023269,0.506803\C,0,-1
 5.9732,-0.444109,0.710055\C,0,-17.011233,0.665188,0.504\C,0,-18.457016
 ,0.196216,0.705019\C,0,-19.496218,1.304051,0.496904\C,0,-20.941711,0.8
 34352,0.696808\C,0,-21.981767,1.94113,0.488003\C,0,-23.421382,1.462341
 ,0.689535\H,0,-1.547642,4.50325,-0.68061\H,0,-1.381057,4.23905,1.05404
 8\H,0,-0.662292,5.685254,0.30666\H,0,4.289048,4.583273,-0.883242\H,0,4
 .671086,3.196286,0.144662\H,0,4.401104,2.955252,-1.576556\H,0,3.29283,
 -2.203126,0.078128\H,0,2.244523,-3.51973,-0.482795\H,0,2.948276,-2.380
 175,-1.637408\H,0,-2.789824,0.007675,-0.260348\H,0,3.437434,0.17591,-2
 .807186\H,0,5.826443,-0.418364,-3.12087\H,0,6.477788,0.004059,1.114437
 \H,0,4.11834,0.614262,1.414537\H,0,8.605276,0.29914,0.27859\H,0,8.2053
 88,-1.419391,0.497934\H,0,9.790204,-2.013045,-1.347533\H,0,10.185258,-
 0.307203,-1.561488\H,0,11.061298,-0.221604,0.799667\H,0,10.678253,-1.9
 25334,1.002274\H,0,12.269891,-2.500981,-0.857472\H,0,12.652874,-0.7972
 84,-1.054763\H,0,13.520501,-0.722555,1.305884\H,0,13.145424,-2.428577,
 1.495288\H,0,14.743648,-2.984079,-0.366048\H,0,15.119231,-1.277821,-0.
 550676\H,0,15.985492,-1.215665,1.810316\H,0,15.61557,-2.923753,1.98905
 7\H,0,17.216894,-3.46352,0.126125\H,0,17.587702,-1.755215,-0.048334\H,
 0,18.453038,-1.703723,2.312677\H,0,18.085724,-3.413221,2.483205\H,0,19
 .690526,-3.942461,0.619923\H,0,20.058963,-2.232816,0.453022\H,0,20.922
 107,-2.189981,2.812506\H,0,20.555222,-3.899023,2.977424\H,0,22.981849,
 -3.569728,2.457527\H,0,22.195224,-4.434935,1.130291\H,0,22.565689,-2.7
 13815,0.966529\H,0,4.688235,8.092221,-0.656821\H,0,5.212956,10.517528,
 -0.668742\H,0,1.069343,11.427546,0.06187\H,0,0.533895,9.005006,0.07534
 6\H,0,-3.104793,-5.720351,-0.524404\H,0,-3.712245,-8.069152,-0.658983\
 H,0,0.481537,-9.123995,-0.824859\H,0,1.066659,-6.769577,-0.686877\H,0,
 -0.627503,-10.963962,-2.185651\H,0,-0.137693,-11.106867,-0.48382\H,0,-
 1.423033,-12.133041,-1.11054\H,0,-4.084078,-10.114748,-0.330912\H,0,-3
 .709546,-10.181044,-2.06649\H,0,-3.486325,-11.61166,-1.037816\H,0,-2.6
 38958,-2.999562,0.342778\H,0,-4.599754,-4.157275,0.779187\H,0,-7.06659
 8,-4.290046,0.997548\H,0,-7.357537,-0.095024,0.065377\H,0,-4.93295,0.0
 37086,-0.149999\H,0,-9.339477,-0.465878,1.199965\H,0,-9.459949,-0.8705
 81,-0.527801\H,0,-11.225352,-2.564112,0.001378\H,0,-11.109566,-2.15613
 4,1.71374\H,0,-11.827196,0.200504,1.1973\H,0,-11.940682,-0.206273,-0.5
 09301\H,0,-13.707074,-1.91528,0.017178\H,0,-13.596885,-1.503162,1.7218
 99\H,0,-14.312171,0.849324,1.199495\H,0,-14.41939,0.438239,-0.505433\H
 ,0,-16.186242,-1.272087,0.018914\H,0,-16.081172,-0.857698,1.722903\H,0
 ,-16.799292,1.492939,1.195774\H,0,-16.902329,1.079315,-0.508562\H,0,-1
 8.668017,-0.63246,0.014041\H,0,-18.566179,-0.217029,1.717917\H,0,-19.2
 8588,2.132635,1.18822\H,0,-19.386737,1.717546,-0.515885\H,0,-21.153115
 ,0.005603,0.005833\H,0,-21.052735,0.42143,1.709779\H,0,-21.771833,2.76
 9162,1.178715\H,0,-21.871975,2.353633,-0.524209\H,0,-24.14019,2.274131
 ,0.533817\H,0,-23.673211,0.65719,-0.010691\H,0,-23.572244,1.07559,1.70
 4259\\Version=ES64L-G16RevA.03\State=1-A\HF=-3385.5745441\RMSD=2.200e-
 09\Dipole=0.3095606,-5.671127,-0.2668249\Quadrupole=68.3126834,-51.275
 8429,-17.0368405,-22.4807917,8.029613,10.9154813\PG=C01 [X(C68H83B1F2N
 4O4)]\\@


 LET US PLACE AT THE END OF EVERY CHAPTER.....THE
 TWO LETTERS USED BY THE ROMAN JUDGES WHEN THEY DID
 NOT UNDERSTAND A PLEADING.
 N. L. -NON LIQUET- IT IS NOT CLEAR.
                                              -- VOLTAIRE
 Job cpu time:       1 days 23 hours  0 minutes 37.1 seconds.
 Elapsed time:       0 days  0 hours 45 minutes 12.5 seconds.
 File lengths (MBytes):  RWF=   8798 Int=      0 D2E=      0 Chk=    752 Scr=      1
 Normal termination of Gaussian 16 at Thu Nov  6 08:29:24 2025.
