 Entering Gaussian System, Link 0=g16
 Input=M100033540_reduced_sp.gjf
 Output=M100033540_reduced_sp.log
 Initial command:
 /public/software/gauss/g16/l1.exe "/public/home/baiding/1101_v2_sp/tmp_M100033540_reduced_sp_1568608/Gau-4156815.inp" -scrdir="/public/home/baiding/1101_v2_sp/tmp_M100033540_reduced_sp_1568608/"
 Entering Link 1 = /public/software/gauss/g16/l1.exe PID=   4156816.
  
 Copyright (c) 1988,1990,1992,1993,1995,1998,2003,2009,2016,
            Gaussian, Inc.  All Rights Reserved.
  
 This is part of the Gaussian(R) 16 program.  It is based on
 the Gaussian(R) 09 system (copyright 2009, Gaussian, Inc.),
 the Gaussian(R) 03 system (copyright 2003, Gaussian, Inc.),
 the Gaussian(R) 98 system (copyright 1998, Gaussian, Inc.),
 the Gaussian(R) 94 system (copyright 1995, Gaussian, Inc.),
 the Gaussian 92(TM) system (copyright 1992, Gaussian, Inc.),
 the Gaussian 90(TM) system (copyright 1990, Gaussian, Inc.),
 the Gaussian 88(TM) system (copyright 1988, Gaussian, Inc.),
 the Gaussian 86(TM) system (copyright 1986, Carnegie Mellon
 University), and the Gaussian 82(TM) system (copyright 1983,
 Carnegie Mellon University). Gaussian is a federally registered
 trademark of Gaussian, Inc.
  
 This software contains proprietary and confidential information,
 including trade secrets, belonging to Gaussian, Inc.
  
 This software is provided under written license and may be
 used, copied, transmitted, or stored only in accord with that
 written license.
  
 The following legend is applicable only to US Government
 contracts under FAR:
  
                    RESTRICTED RIGHTS LEGEND
  
 Use, reproduction and disclosure by the US Government is
 subject to restrictions as set forth in subparagraphs (a)
 and (c) of the Commercial Computer Software - Restricted
 Rights clause in FAR 52.227-19.
  
 Gaussian, Inc.
 340 Quinnipiac St., Bldg. 40, Wallingford CT 06492
  
  
 ---------------------------------------------------------------
 Warning -- This program may not be used in any manner that
 competes with the business of Gaussian, Inc. or will provide
 assistance to any competitor of Gaussian, Inc.  The licensee
 of this program is prohibited from giving any competitor of
 Gaussian, Inc. access to this program.  By using this program,
 the user acknowledges that Gaussian, Inc. is engaged in the
 business of creating and licensing software in the field of
 computational chemistry and represents and warrants to the
 licensee that it is not a competitor of Gaussian, Inc. and that
 it will not use this program in any manner prohibited above.
 ---------------------------------------------------------------
  

 Cite this work as:
 Gaussian 16, Revision A.03,
 M. J. Frisch, G. W. Trucks, H. B. Schlegel, G. E. Scuseria, 
 M. A. Robb, J. R. Cheeseman, G. Scalmani, V. Barone, 
 G. A. Petersson, H. Nakatsuji, X. Li, M. Caricato, A. V. Marenich, 
 J. Bloino, B. G. Janesko, R. Gomperts, B. Mennucci, H. P. Hratchian, 
 J. V. Ortiz, A. F. Izmaylov, J. L. Sonnenberg, D. Williams-Young, 
 F. Ding, F. Lipparini, F. Egidi, J. Goings, B. Peng, A. Petrone, 
 T. Henderson, D. Ranasinghe, V. G. Zakrzewski, J. Gao, N. Rega, 
 G. Zheng, W. Liang, M. Hada, M. Ehara, K. Toyota, R. Fukuda, 
 J. Hasegawa, M. Ishida, T. Nakajima, Y. Honda, O. Kitao, H. Nakai, 
 T. Vreven, K. Throssell, J. A. Montgomery, Jr., J. E. Peralta, 
 F. Ogliaro, M. J. Bearpark, J. J. Heyd, E. N. Brothers, K. N. Kudin, 
 V. N. Staroverov, T. A. Keith, R. Kobayashi, J. Normand, 
 K. Raghavachari, A. P. Rendell, J. C. Burant, S. S. Iyengar, 
 J. Tomasi, M. Cossi, J. M. Millam, M. Klene, C. Adamo, R. Cammi, 
 J. W. Ochterski, R. L. Martin, K. Morokuma, O. Farkas, 
 J. B. Foresman, and D. J. Fox, Gaussian, Inc., Wallingford CT, 2016.
 
 ******************************************
 Gaussian 16:  ES64L-G16RevA.03 25-Dec-2016
                 6-Nov-2025 
 ******************************************
 %nprocshared=64
 Will use up to   64 processors via shared memory.
 %mem=230GB
 %chk=M100033540_reduced_sp.chk
 ----------------------------------------------
 #p M062X/DEF2TZVPP scrf=(solvent=water) em=GD3
 ----------------------------------------------
 1/38=1,172=1/1;
 2/12=2,17=6,18=5,40=1/2;
 3/5=44,7=202,11=2,25=1,30=1,70=2201,72=1,74=-55,124=31/1,2,3;
 4//1;
 5/5=2,38=5,53=1/2;
 6/7=2,8=2,9=2,10=2,28=1/1;
 99/5=1,9=1/99;
 Leave Link    1 at Thu Nov  6 14:23:21 2025, MaxMem= 30870077440 cpu:              12.9 elap:               0.2
 (Enter /public/software/gauss/g16/l101.exe)
 -----------------------------------------
 Energy calculation for M100033540_reduced
 -----------------------------------------
 Symbolic Z-matrix:
 Charge = -1 Multiplicity = 2
 C                     4.40647  -2.72262  -0.68879 
 C                     3.31352  -1.70798  -0.53706 
 C                     1.94737  -2.00562  -0.53567 
 C                     1.3521   -3.36232  -0.63473 
 C                     1.43424  -4.10107  -1.82649 
 C                     0.88668  -5.38324  -1.90986 
 C                     0.24751  -5.94692  -0.8039 
 C                     0.16079  -5.22207   0.3878 
 C                     0.70949  -3.94241   0.47242 
 C                     1.23997  -0.78023  -0.35185 
 C                    -0.18087  -0.51196  -0.28442 
 C                    -1.15768  -1.31997  -0.75981 
 C                    -2.5955   -1.05925  -0.70329 
 C                    -3.15732   0.10372  -0.13409 
 C                    -4.53298   0.29616  -0.11054 
 C                    -5.36606  -0.67742  -0.66367 
 O                    -6.75187  -0.44369  -0.71052 
 S                    -7.65743  -1.09689   0.54157 
 O                    -7.90648  -2.49699   0.17378 
 O                    -6.91516  -0.81225   1.77683 
 C                    -9.10868  -0.08711   0.30761 
 C                    -9.03221   1.03362  -0.54015 
 C                    -10.15479   1.76321  -0.88751 
 C                    -11.41117   1.3495   -0.38316 
 N                    -12.59837   2.06791  -0.74225 
 O                    -12.48102   3.05541  -1.49729 
 O                    -13.70462   1.69126  -0.30098 
 C                    -11.52629   0.27243   0.47768 
 C                    -10.38845  -0.44275   0.85869 
 N                    -10.55279  -1.42396   1.85356 
 O                    -9.51171  -1.92355   2.37112 
 O                    -11.71082  -1.77718   2.21853 
 C                    -4.85007  -1.83795  -1.23505 
 C                    -3.46986  -2.01925  -1.25097 
 N                     2.14315   0.23294  -0.22999 
 C                     3.43001  -0.29284  -0.34055 
 C                     4.56034   0.54763  -0.26804 
 C                     5.92914  -0.03826  -0.36436 
 C                     6.64651   0.02125  -1.56892 
 C                     7.92496  -0.51659  -1.66067 
 C                     8.51922  -1.11588  -0.54094 
 O                     9.79376  -1.59169  -0.74094 
 C                     10.50769  -2.20286   0.33897 
 C                     10.13628  -3.67534   0.46056 
 N                     10.95599  -4.24698   1.55894 
 N                     10.83868  -5.46073   1.72753 
 N                     10.81496  -6.57569   1.97879 
 C                     7.81622  -1.18254   0.66772 
 C                     6.52875  -0.64702   0.74307 
 C                     4.41371   1.93688  -0.11466 
 C                     5.37188   2.98824   0.05277 
 C                     6.86291   2.87758   0.15776 
 C                     4.64027   4.18078   0.17038 
 C                     5.17524   5.54695   0.35599 
 C                     4.689     6.37981   1.38039 
 C                     5.1896    7.67084   1.55209 
 C                     6.19074   8.15548   0.70722 
 C                     6.68546   7.33944  -0.31279 
 C                     6.18147   6.05034  -0.48865 
 C                     3.26263   3.84602   0.07989 
 C                     2.08215   4.75842   0.11657 
 N                     3.13706   2.5129   -0.08393 
 B                     1.80061   1.74622  -0.22232 
 F                     0.96515   2.05489   0.86357 
 F                     1.15219   2.10009  -1.41525 
 H                     4.99127  -2.82941   0.22972 
 H                     3.98134  -3.69827  -0.9312 
 H                     5.10705  -2.44946  -1.48273 
 H                     1.92298  -3.66346  -2.69196 
 H                     0.95813  -5.93899  -2.84023 
 H                    -0.17908  -6.94343  -0.86902 
 H                    -0.33104  -5.65501   1.254 
 H                     0.64253  -3.38415   1.40151 
 H                    -0.44381   0.43409   0.17596 
 H                    -0.88531  -2.25055  -1.2478 
 H                    -2.51716   0.86837   0.29253 
 H                    -4.9648    1.19115   0.32347 
 H                    -8.07608   1.32954  -0.9471 
 H                    -10.07821   2.62284  -1.53784 
 H                    -12.48476  -0.00812   0.89024 
 H                    -5.51783  -2.57503  -1.6665 
 H                    -3.05595  -2.91849  -1.69733 
 H                     6.19953   0.48964  -2.44025 
 H                     8.48155  -0.47491  -2.59127 
 H                     11.56356  -2.10532   0.07686 
 H                     10.33893  -1.66875   1.27885 
 H                     9.07283  -3.79545   0.68697 
 H                     10.35002  -4.18884  -0.48171 
 H                     8.24689  -1.64703   1.5463 
 H                     5.98866  -0.70378   1.68308 
 H                     7.16126   2.05138   0.80692 
 H                     7.33221   2.70336  -0.81653 
 H                     7.27996   3.80154   0.56385 
 H                     3.92485   6.00555   2.05504 
 H                     4.80133   8.29546   2.35134 
 H                     6.58133   9.15972   0.84207 
 H                     7.46013   7.70864  -0.97859 
 H                     6.55787   5.43137  -1.29732 
 H                     1.56898   4.70124   1.08292 
 H                     2.3918    5.79185  -0.04325 
 H                     1.35887   4.4805   -0.65418 
 
 ITRead=  0  0  0  0  0  0  0  0  0  0  0  0  0  0  0  0  0  0  0  0
 ITRead=  0  0  0  0  0  0  0  0  0  0  0  0  0  0  0  0  0  0  0  0
 ITRead=  0  0  0  0  0  0  0  0  0  0  0  0  0  0  0  0  0  0  0  0
 ITRead=  0  0  0  0  0  0  0  0  0  0  0  0  0  0  0  0  0  0  0  0
 ITRead=  0  0  0  0  0  0  0  0  0  0  0  0  0  0  0  0  0  0  0  0
 ITRead=  0
 MicOpt= -1 -1 -1 -1 -1 -1 -1 -1 -1 -1 -1 -1 -1 -1 -1 -1 -1 -1 -1 -1
 MicOpt= -1 -1 -1 -1 -1 -1 -1 -1 -1 -1 -1 -1 -1 -1 -1 -1 -1 -1 -1 -1
 MicOpt= -1 -1 -1 -1 -1 -1 -1 -1 -1 -1 -1 -1 -1 -1 -1 -1 -1 -1 -1 -1
 MicOpt= -1 -1 -1 -1 -1 -1 -1 -1 -1 -1 -1 -1 -1 -1 -1 -1 -1 -1 -1 -1
 MicOpt= -1 -1 -1 -1 -1 -1 -1 -1 -1 -1 -1 -1 -1 -1 -1 -1 -1 -1 -1 -1
 MicOpt= -1
 NAtoms=    101 NQM=      101 NQMF=       0 NMMI=      0 NMMIF=      0
                NMic=       0 NMicF=      0.
                    Isotopes and Nuclear Properties:
 (Nuclear quadrupole moments (NQMom) in fm**2, nuclear magnetic moments (NMagM)
  in nuclear magnetons)

  Atom         1           2           3           4           5           6           7           8           9          10
 IAtWgt=          12          12          12          12          12          12          12          12          12          12
 AtmWgt=  12.0000000  12.0000000  12.0000000  12.0000000  12.0000000  12.0000000  12.0000000  12.0000000  12.0000000  12.0000000
 NucSpn=           0           0           0           0           0           0           0           0           0           0
 AtZEff=  -0.0000000  -0.0000000  -0.0000000  -0.0000000  -0.0000000  -0.0000000  -0.0000000  -0.0000000  -0.0000000  -0.0000000
 NQMom=    0.0000000   0.0000000   0.0000000   0.0000000   0.0000000   0.0000000   0.0000000   0.0000000   0.0000000   0.0000000
 NMagM=    0.0000000   0.0000000   0.0000000   0.0000000   0.0000000   0.0000000   0.0000000   0.0000000   0.0000000   0.0000000
 AtZNuc=   6.0000000   6.0000000   6.0000000   6.0000000   6.0000000   6.0000000   6.0000000   6.0000000   6.0000000   6.0000000

  Atom        11          12          13          14          15          16          17          18          19          20
 IAtWgt=          12          12          12          12          12          12          16          32          16          16
 AtmWgt=  12.0000000  12.0000000  12.0000000  12.0000000  12.0000000  12.0000000  15.9949146  31.9720718  15.9949146  15.9949146
 NucSpn=           0           0           0           0           0           0           0           0           0           0
 AtZEff=  -0.0000000  -0.0000000  -0.0000000  -0.0000000  -0.0000000  -0.0000000  -0.0000000  -0.0000000  -0.0000000  -0.0000000
 NQMom=    0.0000000   0.0000000   0.0000000   0.0000000   0.0000000   0.0000000   0.0000000   0.0000000   0.0000000   0.0000000
 NMagM=    0.0000000   0.0000000   0.0000000   0.0000000   0.0000000   0.0000000   0.0000000   0.0000000   0.0000000   0.0000000
 AtZNuc=   6.0000000   6.0000000   6.0000000   6.0000000   6.0000000   6.0000000   8.0000000  16.0000000   8.0000000   8.0000000

  Atom        21          22          23          24          25          26          27          28          29          30
 IAtWgt=          12          12          12          12          14          16          16          12          12          14
 AtmWgt=  12.0000000  12.0000000  12.0000000  12.0000000  14.0030740  15.9949146  15.9949146  12.0000000  12.0000000  14.0030740
 NucSpn=           0           0           0           0           2           0           0           0           0           2
 AtZEff=  -0.0000000  -0.0000000  -0.0000000  -0.0000000  -0.0000000  -0.0000000  -0.0000000  -0.0000000  -0.0000000  -0.0000000
 NQMom=    0.0000000   0.0000000   0.0000000   0.0000000   2.0440000   0.0000000   0.0000000   0.0000000   0.0000000   2.0440000
 NMagM=    0.0000000   0.0000000   0.0000000   0.0000000   0.4037610   0.0000000   0.0000000   0.0000000   0.0000000   0.4037610
 AtZNuc=   6.0000000   6.0000000   6.0000000   6.0000000   7.0000000   8.0000000   8.0000000   6.0000000   6.0000000   7.0000000

  Atom        31          32          33          34          35          36          37          38          39          40
 IAtWgt=          16          16          12          12          14          12          12          12          12          12
 AtmWgt=  15.9949146  15.9949146  12.0000000  12.0000000  14.0030740  12.0000000  12.0000000  12.0000000  12.0000000  12.0000000
 NucSpn=           0           0           0           0           2           0           0           0           0           0
 AtZEff=  -0.0000000  -0.0000000  -0.0000000  -0.0000000  -0.0000000  -0.0000000  -0.0000000  -0.0000000  -0.0000000  -0.0000000
 NQMom=    0.0000000   0.0000000   0.0000000   0.0000000   2.0440000   0.0000000   0.0000000   0.0000000   0.0000000   0.0000000
 NMagM=    0.0000000   0.0000000   0.0000000   0.0000000   0.4037610   0.0000000   0.0000000   0.0000000   0.0000000   0.0000000
 AtZNuc=   8.0000000   8.0000000   6.0000000   6.0000000   7.0000000   6.0000000   6.0000000   6.0000000   6.0000000   6.0000000

  Atom        41          42          43          44          45          46          47          48          49          50
 IAtWgt=          12          16          12          12          14          14          14          12          12          12
 AtmWgt=  12.0000000  15.9949146  12.0000000  12.0000000  14.0030740  14.0030740  14.0030740  12.0000000  12.0000000  12.0000000
 NucSpn=           0           0           0           0           2           2           2           0           0           0
 AtZEff=  -0.0000000  -0.0000000  -0.0000000  -0.0000000  -0.0000000  -0.0000000  -0.0000000  -0.0000000  -0.0000000  -0.0000000
 NQMom=    0.0000000   0.0000000   0.0000000   0.0000000   2.0440000   2.0440000   2.0440000   0.0000000   0.0000000   0.0000000
 NMagM=    0.0000000   0.0000000   0.0000000   0.0000000   0.4037610   0.4037610   0.4037610   0.0000000   0.0000000   0.0000000
 AtZNuc=   6.0000000   8.0000000   6.0000000   6.0000000   7.0000000   7.0000000   7.0000000   6.0000000   6.0000000   6.0000000

  Atom        51          52          53          54          55          56          57          58          59          60
 IAtWgt=          12          12          12          12          12          12          12          12          12          12
 AtmWgt=  12.0000000  12.0000000  12.0000000  12.0000000  12.0000000  12.0000000  12.0000000  12.0000000  12.0000000  12.0000000
 NucSpn=           0           0           0           0           0           0           0           0           0           0
 AtZEff=  -0.0000000  -0.0000000  -0.0000000  -0.0000000  -0.0000000  -0.0000000  -0.0000000  -0.0000000  -0.0000000  -0.0000000
 NQMom=    0.0000000   0.0000000   0.0000000   0.0000000   0.0000000   0.0000000   0.0000000   0.0000000   0.0000000   0.0000000
 NMagM=    0.0000000   0.0000000   0.0000000   0.0000000   0.0000000   0.0000000   0.0000000   0.0000000   0.0000000   0.0000000
 AtZNuc=   6.0000000   6.0000000   6.0000000   6.0000000   6.0000000   6.0000000   6.0000000   6.0000000   6.0000000   6.0000000

  Atom        61          62          63          64          65          66          67          68          69          70
 IAtWgt=          12          14          11          19          19           1           1           1           1           1
 AtmWgt=  12.0000000  14.0030740  11.0093053  18.9984033  18.9984033   1.0078250   1.0078250   1.0078250   1.0078250   1.0078250
 NucSpn=           0           2           3           1           1           1           1           1           1           1
 AtZEff=  -0.0000000  -0.0000000  -0.0000000  -0.0000000  -0.0000000  -0.0000000  -0.0000000  -0.0000000  -0.0000000  -0.0000000
 NQMom=    0.0000000   2.0440000   4.0590000   0.0000000   0.0000000   0.0000000   0.0000000   0.0000000   0.0000000   0.0000000
 NMagM=    0.0000000   0.4037610   2.6886370   2.6288670   2.6288670   2.7928460   2.7928460   2.7928460   2.7928460   2.7928460
 AtZNuc=   6.0000000   7.0000000   5.0000000   9.0000000   9.0000000   1.0000000   1.0000000   1.0000000   1.0000000   1.0000000

  Atom        71          72          73          74          75          76          77          78          79          80
 IAtWgt=           1           1           1           1           1           1           1           1           1           1
 AtmWgt=   1.0078250   1.0078250   1.0078250   1.0078250   1.0078250   1.0078250   1.0078250   1.0078250   1.0078250   1.0078250
 NucSpn=           1           1           1           1           1           1           1           1           1           1
 AtZEff=  -0.0000000  -0.0000000  -0.0000000  -0.0000000  -0.0000000  -0.0000000  -0.0000000  -0.0000000  -0.0000000  -0.0000000
 NQMom=    0.0000000   0.0000000   0.0000000   0.0000000   0.0000000   0.0000000   0.0000000   0.0000000   0.0000000   0.0000000
 NMagM=    2.7928460   2.7928460   2.7928460   2.7928460   2.7928460   2.7928460   2.7928460   2.7928460   2.7928460   2.7928460
 AtZNuc=   1.0000000   1.0000000   1.0000000   1.0000000   1.0000000   1.0000000   1.0000000   1.0000000   1.0000000   1.0000000

  Atom        81          82          83          84          85          86          87          88          89          90
 IAtWgt=           1           1           1           1           1           1           1           1           1           1
 AtmWgt=   1.0078250   1.0078250   1.0078250   1.0078250   1.0078250   1.0078250   1.0078250   1.0078250   1.0078250   1.0078250
 NucSpn=           1           1           1           1           1           1           1           1           1           1
 AtZEff=  -0.0000000  -0.0000000  -0.0000000  -0.0000000  -0.0000000  -0.0000000  -0.0000000  -0.0000000  -0.0000000  -0.0000000
 NQMom=    0.0000000   0.0000000   0.0000000   0.0000000   0.0000000   0.0000000   0.0000000   0.0000000   0.0000000   0.0000000
 NMagM=    2.7928460   2.7928460   2.7928460   2.7928460   2.7928460   2.7928460   2.7928460   2.7928460   2.7928460   2.7928460
 AtZNuc=   1.0000000   1.0000000   1.0000000   1.0000000   1.0000000   1.0000000   1.0000000   1.0000000   1.0000000   1.0000000

  Atom        91          92          93          94          95          96          97          98          99         100
 IAtWgt=           1           1           1           1           1           1           1           1           1           1
 AtmWgt=   1.0078250   1.0078250   1.0078250   1.0078250   1.0078250   1.0078250   1.0078250   1.0078250   1.0078250   1.0078250
 NucSpn=           1           1           1           1           1           1           1           1           1           1
 AtZEff=  -0.0000000  -0.0000000  -0.0000000  -0.0000000  -0.0000000  -0.0000000  -0.0000000  -0.0000000  -0.0000000  -0.0000000
 NQMom=    0.0000000   0.0000000   0.0000000   0.0000000   0.0000000   0.0000000   0.0000000   0.0000000   0.0000000   0.0000000
 NMagM=    2.7928460   2.7928460   2.7928460   2.7928460   2.7928460   2.7928460   2.7928460   2.7928460   2.7928460   2.7928460
 AtZNuc=   1.0000000   1.0000000   1.0000000   1.0000000   1.0000000   1.0000000   1.0000000   1.0000000   1.0000000   1.0000000

  Atom       101
 IAtWgt=           1
 AtmWgt=   1.0078250
 NucSpn=           1
 AtZEff=  -0.0000000
 NQMom=    0.0000000
 NMagM=    2.7928460
 AtZNuc=   1.0000000
 Leave Link  101 at Thu Nov  6 14:23:22 2025, MaxMem= 30870077440 cpu:               4.2 elap:               0.1
 (Enter /public/software/gauss/g16/l202.exe)
 Stoichiometry    C46H36BF2N7O8S(1-,2)
 Framework group  C1[X(C46H36BF2N7O8S)]
 Deg. of freedom   297
 Full point group                 C1      NOp   1
 Largest Abelian subgroup         C1      NOp   1
 Largest concise Abelian subgroup C1      NOp   1
                         Standard orientation:                         
 ---------------------------------------------------------------------
 Center     Atomic      Atomic             Coordinates (Angstroms)
 Number     Number       Type             X           Y           Z
 ---------------------------------------------------------------------
      1          6           0        4.406466   -2.722621   -0.688786
      2          6           0        3.313516   -1.707980   -0.537061
      3          6           0        1.947374   -2.005618   -0.535672
      4          6           0        1.352101   -3.362317   -0.634726
      5          6           0        1.434235   -4.101068   -1.826488
      6          6           0        0.886679   -5.383239   -1.909860
      7          6           0        0.247510   -5.946920   -0.803895
      8          6           0        0.160791   -5.222070    0.387800
      9          6           0        0.709493   -3.942410    0.472418
     10          6           0        1.239967   -0.780230   -0.351849
     11          6           0       -0.180874   -0.511959   -0.284421
     12          6           0       -1.157677   -1.319965   -0.759813
     13          6           0       -2.595502   -1.059246   -0.703289
     14          6           0       -3.157320    0.103722   -0.134093
     15          6           0       -4.532975    0.296160   -0.110540
     16          6           0       -5.366055   -0.677419   -0.663673
     17          8           0       -6.751871   -0.443691   -0.710523
     18         16           0       -7.657428   -1.096885    0.541572
     19          8           0       -7.906480   -2.496987    0.173778
     20          8           0       -6.915160   -0.812253    1.776826
     21          6           0       -9.108684   -0.087105    0.307606
     22          6           0       -9.032211    1.033624   -0.540153
     23          6           0      -10.154789    1.763214   -0.887505
     24          6           0      -11.411171    1.349497   -0.383155
     25          7           0      -12.598374    2.067905   -0.742247
     26          8           0      -12.481015    3.055414   -1.497285
     27          8           0      -13.704618    1.691264   -0.300980
     28          6           0      -11.526289    0.272429    0.477681
     29          6           0      -10.388450   -0.442749    0.858687
     30          7           0      -10.552789   -1.423962    1.853563
     31          8           0       -9.511707   -1.923549    2.371123
     32          8           0      -11.710815   -1.777181    2.218526
     33          6           0       -4.850068   -1.837946   -1.235051
     34          6           0       -3.469864   -2.019253   -1.250969
     35          7           0        2.143145    0.232940   -0.229993
     36          6           0        3.430005   -0.292842   -0.340547
     37          6           0        4.560336    0.547625   -0.268035
     38          6           0        5.929144   -0.038255   -0.364362
     39          6           0        6.646515    0.021252   -1.568917
     40          6           0        7.924964   -0.516592   -1.660668
     41          6           0        8.519221   -1.115877   -0.540943
     42          8           0        9.793764   -1.591685   -0.740943
     43          6           0       10.507693   -2.202857    0.338971
     44          6           0       10.136279   -3.675344    0.460558
     45          7           0       10.955987   -4.246982    1.558941
     46          7           0       10.838683   -5.460729    1.727528
     47          7           0       10.814963   -6.575690    1.978785
     48          6           0        7.816222   -1.182535    0.667716
     49          6           0        6.528748   -0.647017    0.743069
     50          6           0        4.413715    1.936881   -0.114658
     51          6           0        5.371882    2.988244    0.052768
     52          6           0        6.862910    2.877576    0.157762
     53          6           0        4.640273    4.180780    0.170380
     54          6           0        5.175239    5.546945    0.355986
     55          6           0        4.688999    6.379806    1.380388
     56          6           0        5.189604    7.670845    1.552088
     57          6           0        6.190737    8.155477    0.707215
     58          6           0        6.685463    7.339443   -0.312785
     59          6           0        6.181467    6.050342   -0.488649
     60          6           0        3.262631    3.846020    0.079894
     61          6           0        2.082153    4.758420    0.116574
     62          7           0        3.137055    2.512895   -0.083927
     63          5           0        1.800613    1.746217   -0.222324
     64          9           0        0.965151    2.054892    0.863572
     65          9           0        1.152188    2.100088   -1.415248
     66          1           0        4.991268   -2.829414    0.229718
     67          1           0        3.981336   -3.698273   -0.931203
     68          1           0        5.107052   -2.449456   -1.482727
     69          1           0        1.922980   -3.663460   -2.691959
     70          1           0        0.958132   -5.938993   -2.840232
     71          1           0       -0.179081   -6.943428   -0.869020
     72          1           0       -0.331037   -5.655010    1.254004
     73          1           0        0.642534   -3.384146    1.401509
     74          1           0       -0.443807    0.434094    0.175961
     75          1           0       -0.885309   -2.250545   -1.247802
     76          1           0       -2.517160    0.868372    0.292534
     77          1           0       -4.964801    1.191148    0.323472
     78          1           0       -8.076077    1.329535   -0.947100
     79          1           0      -10.078206    2.622839   -1.537836
     80          1           0      -12.484763   -0.008124    0.890235
     81          1           0       -5.517828   -2.575028   -1.666501
     82          1           0       -3.055954   -2.918489   -1.697334
     83          1           0        6.199530    0.489644   -2.440250
     84          1           0        8.481552   -0.474913   -2.591265
     85          1           0       11.563559   -2.105324    0.076862
     86          1           0       10.338927   -1.668754    1.278851
     87          1           0        9.072834   -3.795453    0.686969
     88          1           0       10.350019   -4.188838   -0.481705
     89          1           0        8.246890   -1.647033    1.546304
     90          1           0        5.988658   -0.703778    1.683075
     91          1           0        7.161258    2.051376    0.806923
     92          1           0        7.332213    2.703363   -0.816527
     93          1           0        7.279957    3.801537    0.563852
     94          1           0        3.924854    6.005548    2.055036
     95          1           0        4.801327    8.295463    2.351337
     96          1           0        6.581327    9.159717    0.842073
     97          1           0        7.460134    7.708637   -0.978591
     98          1           0        6.557873    5.431369   -1.297319
     99          1           0        1.568981    4.701241    1.082923
    100          1           0        2.391803    5.791847   -0.043245
    101          1           0        1.358869    4.480495   -0.654180
 ---------------------------------------------------------------------
 Rotational constants (GHZ):           0.0488163           0.0108500           0.0091813
 Leave Link  202 at Thu Nov  6 14:23:22 2025, MaxMem= 30870077440 cpu:               0.2 elap:               0.0
 (Enter /public/software/gauss/g16/l301.exe)
 Standard basis: def2TZVPP (5D, 7F)
 Ernie: Thresh=  0.10000D-02 Tol=  0.10000D-05 Strict=F.
 There are  2892 symmetry adapted cartesian basis functions of A   symmetry.
 There are  2530 symmetry adapted basis functions of A   symmetry.
  2530 basis functions,  3945 primitive gaussians,  2892 cartesian basis functions
   233 alpha electrons      232 beta electrons
       nuclear repulsion energy      8829.6335933480 Hartrees.
 IExCor= 4336 DFT=T Ex+Corr=M062X ExCW=0 ScaHFX=  0.540000
 ScaDFX=  1.000000  1.000000  1.000000  1.000000 ScalE2=  1.000000  1.000000
 IRadAn=      5 IRanWt=     -1 IRanGd=            0 ICorTp=0 IEmpDi=131
 NAtoms=  101 NActive=  101 NUniq=  101 SFac= 1.00D+00 NAtFMM=   60 NAOKFM=T Big=T
 Integral buffers will be    131072 words long.
 Raffenetti 2 integral format.
 Two-electron integral symmetry is turned on.
 R6Disp:  Grimme-D3 Dispersion energy=       -0.0094781279 Hartrees.
 Nuclear repulsion after empirical dispersion term =     8829.6241152201 Hartrees.
 ------------------------------------------------------------------------------
 Polarizable Continuum Model (PCM)
 =================================
 Model                : PCM.
 Atomic radii         : UFF (Universal Force Field).
 Polarization charges : Total charges.
 Charge compensation  : None.
 Solution method      : On-the-fly selection.
 Cavity type          : Scaled VdW (van der Waals Surface) (Alpha=1.100).
 Cavity algorithm     : GePol (No added spheres)
                        Default sphere list used, NSphG=  101.
                        Lebedev-Laikov grids with approx.  5.0 points / Ang**2.
                        Smoothing algorithm: York/Karplus (Gamma=1.0000).
                        Polarization charges: spherical gaussians, with
                                              point-specific exponents (IZeta= 3).
                        Self-potential: point-specific (ISelfS= 7).
                        Self-field    : sphere-specific E.n sum rule (ISelfD= 2).
 Solvent              : Water, Eps=  78.355300 Eps(inf)=   1.777849
 ------------------------------------------------------------------------------
 GePol: Number of generator spheres                  =     101
 GePol: Total number of spheres                      =     101
 GePol: Number of exposed spheres                    =     101 (100.00%)
 GePol: Number of points                             =    7495
 GePol: Average weight of points                     =       0.13
 GePol: Minimum weight of points                     =   0.87D-11
 GePol: Maximum weight of points                     =    0.20577
 GePol: Number of points with low weight             =     516
 GePol: Fraction of low-weight points (<1% of avg)   =       6.88%
 GePol: Cavity surface area                          =    953.719 Ang**2
 GePol: Cavity volume                                =   1115.475 Ang**3
 Leave Link  301 at Thu Nov  6 14:23:22 2025, MaxMem= 30870077440 cpu:               6.9 elap:               0.1
 (Enter /public/software/gauss/g16/l302.exe)
 NPDir=0 NMtPBC=     1 NCelOv=     1 NCel=       1 NClECP=     1 NCelD=      1
         NCelK=      1 NCelE2=     1 NClLst=     1 CellRange=     0.0.
 One-electron integrals computed using PRISM.
 One-electron integral symmetry used in STVInt
   1 Symmetry operations used in ECPInt.
 ECPInt:  NShTT=  436645 NPrTT= 1274361 LenC2=  219406 LenP2D=  417938.
 LDataN:  DoStor=T MaxTD1= 6 Len=  172
 Number of processors reduced to  63 by ecpmxn.
 NBasis=  2530 RedAO= T EigKep=  3.05D-06  NBF=  2530
 NBsUse=  2530 1.00D-06 EigRej= -1.00D+00 NBFU=  2530
 Precomputing XC quadrature grid using
 IXCGrd= 4 IRadAn=           5 IRanWt=          -1 IRanGd=           0 AccXCQ= 0.00D+00.
 Generated NRdTot=       0 NPtTot=           0 NUsed=           0 NTot=          32
 NSgBfM=  2264  2261  2264  2264  2264 MxSgAt=   101 MxSgA2=   101.
 Leave Link  302 at Thu Nov  6 14:23:42 2025, MaxMem= 30870077440 cpu:            1298.3 elap:              20.4
 (Enter /public/software/gauss/g16/l303.exe)
 DipDrv:  MaxL=1.
 Leave Link  303 at Thu Nov  6 14:23:43 2025, MaxMem= 30870077440 cpu:              47.0 elap:               0.8
 (Enter /public/software/gauss/g16/l401.exe)
 ExpMin= 6.06D-02 ExpMax= 6.07D+04 ExpMxC= 2.07D+03 IAcc=3 IRadAn=         5 AccDes= 0.00D+00
 Harris functional with IExCor= 1009 and IRadAn=       5 diagonalized for initial guess.
 HarFok:  IExCor= 1009 AccDes= 0.00D+00 IRadAn=         5 IDoV= 1 UseB2=F ITyADJ=14
 ICtDFT=  3500011 ScaDFX=  1.000000  1.000000  1.000000  1.000000
 FoFCou: FMM=F IPFlag=           0 FMFlag=      100000 FMFlg1=        2001
         NFxFlg=           0 DoJE=T BraDBF=F KetDBF=T FulRan=T
         wScrn=  0.000000 ICntrl=       500 IOpCl=  0 I1Cent=   200000004 NGrid=           0
         NMat0=    1 NMatS0=      1 NMatT0=    0 NMatD0=    1 NMtDS0=    0 NMtDT0=    0
 Petite list used in FoFCou.
 Harris En= -3380.84092822425    
 JPrj=0 DoOrth=F DoCkMO=F.
 Initial guess <Sx>= 0.0000 <Sy>= 0.0000 <Sz>= 0.5000 <S**2>= 0.7500 S= 0.5000
 Leave Link  401 at Thu Nov  6 14:24:03 2025, MaxMem= 30870077440 cpu:            1236.2 elap:              19.4
 (Enter /public/software/gauss/g16/l502.exe)
 Integral symmetry usage will be decided dynamically.
 UHF open shell SCF:
 Using DIIS extrapolation, IDIIS=  1040.
 NGot= 30870077440 LenX= 30853140905 LenY= 30844774349
 Requested convergence on RMS density matrix=1.00D-08 within 128 cycles.
 Requested convergence on MAX density matrix=1.00D-06.
 Requested convergence on             energy=1.00D-06.
 No special actions if energy rises.
 Fock matrices will be formed incrementally for  20 cycles.

 Cycle   1  Pass 1  IDiag  1:
 FoFJK:  IHMeth= 1 ICntrl=       0 DoSepK=F KAlg= 0 I1Cent=           0 FoldK=F
 IRaf= 460000000 NMat=       1 IRICut=       1 DoRegI=T DoRafI=F ISym2E= 0 IDoP0=0 IntGTp=1.
 FoFCou: FMM=T IPFlag=           0 FMFlag=      100000 FMFlg1=        2001
         NFxFlg=           0 DoJE=F BraDBF=F KetDBF=F FulRan=T
         wScrn=  0.000000 ICntrl=         0 IOpCl=  1 I1Cent=           0 NGrid=           0
         NMat0=    1 NMatS0=      1 NMatT0=    0 NMatD0=    1 NMtDS0=    0 NMtDT0=    0
 Symmetry not used in FoFCou.
 FMM levels:  10  Number of levels for PrismC:   9
 Inv3:  Mode=1 IEnd=   168525075.
 Iteration    1 A*A^-1 deviation from unit magnitude is 1.93D-14 for   7487.
 Iteration    1 A*A^-1 deviation from orthogonality  is 6.05D-15 for   6860    916.
 Iteration    1 A^-1*A deviation from unit magnitude is 1.93D-14 for   7487.
 Iteration    1 A^-1*A deviation from orthogonality  is 5.71D-15 for   7483   3783.
 E= -3380.63757581368    
 DIIS: error= 2.25D-02 at cycle   1 NSaved=   1.
 NSaved= 1 IEnMin= 1 EnMin= -3380.63757581368     IErMin= 1 ErrMin= 2.25D-02
 ErrMax= 2.25D-02  0.00D+00 EMaxC= 1.00D-01 BMatC= 9.49D+00 BMatP= 9.49D+00
 IDIUse=3 WtCom= 7.75D-01 WtEn= 2.25D-01
 Coeff-Com:  0.100D+01
 Coeff-En:   0.100D+01
 Coeff:      0.100D+01
 Gap=    -0.082 Goal=   None    Shift=    0.000
 Gap=     0.331 Goal=   None    Shift=    0.000
 GapD=   -0.082 DampG=0.250 DampE=0.500 DampFc=0.2500 IDamp=-1.
 Damping current iteration by 2.50D-01
 RMSDP=1.47D-03 MaxDP=3.34D-01              OVMax= 9.56D-01

 Cycle   2  Pass 1  IDiag  1:
 RMSU=  3.68D-04    CP:  9.96D-01
 E= -3381.22652643150     Delta-E=       -0.588950617814 Rises=F Damp=T
 DIIS: error= 1.03D-02 at cycle   2 NSaved=   2.
 NSaved= 2 IEnMin= 2 EnMin= -3381.22652643150     IErMin= 2 ErrMin= 1.03D-02
 ErrMax= 1.03D-02  0.00D+00 EMaxC= 1.00D-01 BMatC= 3.01D+00 BMatP= 9.49D+00
 IDIUse=3 WtCom= 8.97D-01 WtEn= 1.03D-01
 Coeff-Com: -0.919D+00 0.192D+01
 Coeff-En:   0.000D+00 0.100D+01
 Coeff:     -0.825D+00 0.182D+01
 Gap=    -0.004 Goal=   None    Shift=    0.000
 Gap=    -0.136 Goal=   None    Shift=    0.000
 RMSDP=8.84D-04 MaxDP=1.87D-01 DE=-5.89D-01 OVMax= 9.95D-01

 Cycle   3  Pass 1  IDiag  1:
 RMSU=  7.90D-04    CP:  9.99D-01  2.08D+00
 E= -3382.16852815011     Delta-E=       -0.942001718611 Rises=F Damp=F
 DIIS: error= 7.89D-03 at cycle   3 NSaved=   3.
 NSaved= 3 IEnMin= 3 EnMin= -3382.16852815011     IErMin= 3 ErrMin= 7.89D-03
 ErrMax= 7.89D-03  0.00D+00 EMaxC= 1.00D-01 BMatC= 8.65D-01 BMatP= 3.01D+00
 IDIUse=3 WtCom= 9.21D-01 WtEn= 7.89D-02
 Coeff-Com: -0.545D+00 0.984D+00 0.562D+00
 Coeff-En:   0.000D+00 0.000D+00 0.100D+01
 Coeff:     -0.502D+00 0.906D+00 0.596D+00
 Gap=     0.016 Goal=   None    Shift=    0.000
 Gap=     0.079 Goal=   None    Shift=    0.000
 RMSDP=5.15D-04 MaxDP=1.03D-01 DE=-9.42D-01 OVMax= 9.92D-01

 Cycle   4  Pass 1  IDiag  1:
 RMSU=  4.15D-04    CP:  9.83D-01  2.16D+00  6.22D-01
 E= -3382.35230192027     Delta-E=       -0.183773770163 Rises=F Damp=F
 DIIS: error= 4.85D-03 at cycle   4 NSaved=   4.
 NSaved= 4 IEnMin= 4 EnMin= -3382.35230192027     IErMin= 4 ErrMin= 4.85D-03
 ErrMax= 4.85D-03  0.00D+00 EMaxC= 1.00D-01 BMatC= 2.14D-01 BMatP= 8.65D-01
 IDIUse=3 WtCom= 9.51D-01 WtEn= 4.85D-02
 Coeff-Com: -0.182D+00 0.300D+00 0.353D+00 0.529D+00
 Coeff-En:   0.000D+00 0.000D+00 0.124D+00 0.876D+00
 Coeff:     -0.173D+00 0.286D+00 0.342D+00 0.546D+00
 Gap=     0.031 Goal=   None    Shift=    0.000
 Gap=     0.153 Goal=   None    Shift=    0.000
 RMSDP=1.64D-04 MaxDP=4.36D-02 DE=-1.84D-01 OVMax= 9.34D-02

 Cycle   5  Pass 1  IDiag  1:
 RMSU=  1.36D-04    CP:  9.88D-01  2.16D+00  7.10D-01  8.68D-01
 E= -3382.40540305180     Delta-E=       -0.053101131529 Rises=F Damp=F
 DIIS: error= 1.63D-03 at cycle   5 NSaved=   5.
 NSaved= 5 IEnMin= 5 EnMin= -3382.40540305180     IErMin= 5 ErrMin= 1.63D-03
 ErrMax= 1.63D-03  0.00D+00 EMaxC= 1.00D-01 BMatC= 1.44D-02 BMatP= 2.14D-01
 IDIUse=3 WtCom= 9.84D-01 WtEn= 1.63D-02
 Coeff-Com: -0.419D-01 0.673D-01 0.150D+00 0.197D+00 0.627D+00
 Coeff-En:   0.000D+00 0.000D+00 0.000D+00 0.000D+00 0.100D+01
 Coeff:     -0.412D-01 0.662D-01 0.148D+00 0.194D+00 0.634D+00
 Gap=     0.075 Goal=   None    Shift=    0.000
 Gap=     0.156 Goal=   None    Shift=    0.000
 RMSDP=6.57D-05 MaxDP=1.93D-02 DE=-5.31D-02 OVMax= 2.14D-02

 Cycle   6  Pass 1  IDiag  1:
 RMSU=  6.07D-05    CP:  9.89D-01  2.17D+00  7.20D-01  8.22D-01  1.10D+00
 E= -3382.40875873114     Delta-E=       -0.003355679341 Rises=F Damp=F
 DIIS: error= 9.10D-04 at cycle   6 NSaved=   6.
 NSaved= 6 IEnMin= 6 EnMin= -3382.40875873114     IErMin= 6 ErrMin= 9.10D-04
 ErrMax= 9.10D-04  0.00D+00 EMaxC= 1.00D-01 BMatC= 5.35D-03 BMatP= 1.44D-02
 IDIUse=3 WtCom= 9.91D-01 WtEn= 9.10D-03
 Coeff-Com:  0.566D-02-0.757D-02 0.307D-01-0.375D-01 0.313D+00 0.695D+00
 Coeff-En:   0.000D+00 0.000D+00 0.000D+00 0.000D+00 0.000D+00 0.100D+01
 Coeff:      0.561D-02-0.750D-02 0.305D-01-0.371D-01 0.311D+00 0.698D+00
 Gap=     0.100 Goal=   None    Shift=    0.000
 Gap=     0.154 Goal=   None    Shift=    0.000
 RMSDP=4.79D-05 MaxDP=2.34D-02 DE=-3.36D-03 OVMax= 1.74D-02

 Cycle   7  Pass 1  IDiag  1:
 RMSU=  2.95D-05    CP:  9.90D-01  2.16D+00  7.41D-01  7.98D-01  1.32D+00
                    CP:  1.20D+00
 E= -3382.41054564636     Delta-E=       -0.001786915222 Rises=F Damp=F
 DIIS: error= 3.23D-04 at cycle   7 NSaved=   7.
 NSaved= 7 IEnMin= 7 EnMin= -3382.41054564636     IErMin= 7 ErrMin= 3.23D-04
 ErrMax= 3.23D-04  0.00D+00 EMaxC= 1.00D-01 BMatC= 5.81D-04 BMatP= 5.35D-03
 IDIUse=3 WtCom= 9.97D-01 WtEn= 3.23D-03
 Coeff-Com:  0.261D-02-0.328D-02-0.895D-02-0.528D-01-0.449D-01 0.214D+00
 Coeff-Com:  0.893D+00
 Coeff-En:   0.000D+00 0.000D+00 0.000D+00 0.000D+00 0.000D+00 0.000D+00
 Coeff-En:   0.100D+01
 Coeff:      0.260D-02-0.327D-02-0.892D-02-0.526D-01-0.447D-01 0.213D+00
 Coeff:      0.894D+00
 Gap=     0.110 Goal=   None    Shift=    0.000
 Gap=     0.154 Goal=   None    Shift=    0.000
 RMSDP=2.48D-05 MaxDP=1.01D-02 DE=-1.79D-03 OVMax= 1.17D-02

 Cycle   8  Pass 1  IDiag  1:
 RMSU=  1.41D-05    CP:  9.91D-01  2.17D+00  7.48D-01  7.83D-01  1.39D+00
                    CP:  1.42D+00  1.31D+00
 E= -3382.41091483285     Delta-E=       -0.000369186484 Rises=F Damp=F
 DIIS: error= 1.37D-04 at cycle   8 NSaved=   8.
 NSaved= 8 IEnMin= 8 EnMin= -3382.41091483285     IErMin= 8 ErrMin= 1.37D-04
 ErrMax= 1.37D-04  0.00D+00 EMaxC= 1.00D-01 BMatC= 1.57D-04 BMatP= 5.81D-04
 IDIUse=3 WtCom= 9.99D-01 WtEn= 1.37D-03
 Coeff-Com: -0.193D-02 0.301D-02-0.642D-02-0.549D-02-0.701D-01-0.465D-01
 Coeff-Com:  0.364D+00 0.763D+00
 Coeff-En:   0.000D+00 0.000D+00 0.000D+00 0.000D+00 0.000D+00 0.000D+00
 Coeff-En:   0.000D+00 0.100D+01
 Coeff:     -0.193D-02 0.300D-02-0.641D-02-0.548D-02-0.700D-01-0.464D-01
 Coeff:      0.364D+00 0.763D+00
 Gap=     0.111 Goal=   None    Shift=    0.000
 Gap=     0.154 Goal=   None    Shift=    0.000
 RMSDP=9.97D-06 MaxDP=4.23D-03 DE=-3.69D-04 OVMax= 5.57D-03

 Cycle   9  Pass 1  IDiag  1:
 RMSU=  5.29D-06    CP:  9.91D-01  2.17D+00  7.48D-01  7.82D-01  1.40D+00
                    CP:  1.45D+00  1.54D+00  1.30D+00
 E= -3382.41100700405     Delta-E=       -0.000092171207 Rises=F Damp=F
 DIIS: error= 7.50D-05 at cycle   9 NSaved=   9.
 NSaved= 9 IEnMin= 9 EnMin= -3382.41100700405     IErMin= 9 ErrMin= 7.50D-05
 ErrMax= 7.50D-05  0.00D+00 EMaxC= 1.00D-01 BMatC= 5.34D-05 BMatP= 1.57D-04
 IDIUse=1 WtCom= 1.00D+00 WtEn= 0.00D+00
 Coeff-Com: -0.201D-02 0.291D-02-0.896D-03 0.122D-01-0.223D-01-0.662D-01
 Coeff-Com: -0.142D-01 0.362D+00 0.728D+00
 Coeff:     -0.201D-02 0.291D-02-0.896D-03 0.122D-01-0.223D-01-0.662D-01
 Coeff:     -0.142D-01 0.362D+00 0.728D+00
 Gap=     0.111 Goal=   None    Shift=    0.000
 Gap=     0.153 Goal=   None    Shift=    0.000
 RMSDP=5.03D-06 MaxDP=1.31D-03 DE=-9.22D-05 OVMax= 3.85D-03

 Cycle  10  Pass 1  IDiag  1:
 RMSU=  2.96D-06    CP:  9.91D-01  2.17D+00  7.47D-01  7.82D-01  1.40D+00
                    CP:  1.47D+00  1.61D+00  1.50D+00  1.30D+00
 E= -3382.41104194235     Delta-E=       -0.000034938294 Rises=F Damp=F
 DIIS: error= 6.01D-05 at cycle  10 NSaved=  10.
 NSaved=10 IEnMin=10 EnMin= -3382.41104194235     IErMin=10 ErrMin= 6.01D-05
 ErrMax= 6.01D-05  0.00D+00 EMaxC= 1.00D-01 BMatC= 1.58D-05 BMatP= 5.34D-05
 IDIUse=1 WtCom= 1.00D+00 WtEn= 0.00D+00
 Coeff-Com: -0.214D-03 0.245D-03 0.817D-03 0.669D-02 0.117D-01-0.108D-01
 Coeff-Com: -0.122D+00-0.122D+00 0.329D+00 0.907D+00
 Coeff:     -0.214D-03 0.245D-03 0.817D-03 0.669D-02 0.117D-01-0.108D-01
 Coeff:     -0.122D+00-0.122D+00 0.329D+00 0.907D+00
 Gap=     0.111 Goal=   None    Shift=    0.000
 Gap=     0.153 Goal=   None    Shift=    0.000
 RMSDP=4.14D-06 MaxDP=1.02D-03 DE=-3.49D-05 OVMax= 4.42D-03

 Cycle  11  Pass 1  IDiag  1:
 RMSU=  1.75D-06    CP:  9.91D-01  2.17D+00  7.47D-01  7.82D-01  1.40D+00
                    CP:  1.46D+00  1.66D+00  1.65D+00  1.64D+00  1.63D+00
 E= -3382.41106016026     Delta-E=       -0.000018217908 Rises=F Damp=F
 DIIS: error= 4.17D-05 at cycle  11 NSaved=  11.
 NSaved=11 IEnMin=11 EnMin= -3382.41106016026     IErMin=11 ErrMin= 4.17D-05
 ErrMax= 4.17D-05  0.00D+00 EMaxC= 1.00D-01 BMatC= 5.61D-06 BMatP= 1.58D-05
 IDIUse=1 WtCom= 1.00D+00 WtEn= 0.00D+00
 Coeff-Com:  0.344D-03-0.523D-03-0.161D-03 0.880D-06 0.807D-02 0.886D-02
 Coeff-Com: -0.506D-01-0.143D+00 0.628D-02 0.460D+00 0.710D+00
 Coeff:      0.344D-03-0.523D-03-0.161D-03 0.880D-06 0.807D-02 0.886D-02
 Coeff:     -0.506D-01-0.143D+00 0.628D-02 0.460D+00 0.710D+00
 Gap=     0.112 Goal=   None    Shift=    0.000
 Gap=     0.153 Goal=   None    Shift=    0.000
 RMSDP=2.06D-06 MaxDP=4.14D-04 DE=-1.82D-05 OVMax= 3.12D-03

 Cycle  12  Pass 1  IDiag  1:
 RMSU=  9.37D-07    CP:  9.91D-01  2.16D+00  7.46D-01  7.82D-01  1.40D+00
                    CP:  1.46D+00  1.68D+00  1.69D+00  1.80D+00  2.01D+00
                    CP:  1.41D+00
 E= -3382.41106677664     Delta-E=       -0.000006616385 Rises=F Damp=F
 DIIS: error= 3.08D-05 at cycle  12 NSaved=  12.
 NSaved=12 IEnMin=12 EnMin= -3382.41106677664     IErMin=12 ErrMin= 3.08D-05
 ErrMax= 3.08D-05  0.00D+00 EMaxC= 1.00D-01 BMatC= 2.82D-06 BMatP= 5.61D-06
 IDIUse=1 WtCom= 1.00D+00 WtEn= 0.00D+00
 Coeff-Com:  0.252D-03-0.363D-03-0.722D-03-0.221D-02-0.842D-03 0.975D-02
 Coeff-Com:  0.239D-01-0.333D-01-0.126D+00-0.105D+00 0.412D+00 0.822D+00
 Coeff:      0.252D-03-0.363D-03-0.722D-03-0.221D-02-0.842D-03 0.975D-02
 Coeff:      0.239D-01-0.333D-01-0.126D+00-0.105D+00 0.412D+00 0.822D+00
 Gap=     0.112 Goal=   None    Shift=    0.000
 Gap=     0.153 Goal=   None    Shift=    0.000
 RMSDP=1.84D-06 MaxDP=4.09D-04 DE=-6.62D-06 OVMax= 3.25D-03

 Cycle  13  Pass 1  IDiag  1:
 RMSU=  7.02D-07    CP:  9.91D-01  2.16D+00  7.46D-01  7.82D-01  1.40D+00
                    CP:  1.46D+00  1.69D+00  1.70D+00  1.90D+00  2.38D+00
                    CP:  1.91D+00  1.73D+00
 E= -3382.41107143038     Delta-E=       -0.000004653743 Rises=F Damp=F
 DIIS: error= 2.56D-05 at cycle  13 NSaved=  13.
 NSaved=13 IEnMin=13 EnMin= -3382.41107143038     IErMin=13 ErrMin= 2.56D-05
 ErrMax= 2.56D-05  0.00D+00 EMaxC= 1.00D-01 BMatC= 1.60D-06 BMatP= 2.82D-06
 IDIUse=1 WtCom= 1.00D+00 WtEn= 0.00D+00
 Coeff-Com: -0.134D-04 0.128D-04-0.548D-03-0.646D-03-0.347D-02 0.346D-02
 Coeff-Com:  0.360D-01 0.321D-01-0.763D-01-0.245D+00-0.355D-01 0.418D+00
 Coeff-Com:  0.872D+00
 Coeff:     -0.134D-04 0.128D-04-0.548D-03-0.646D-03-0.347D-02 0.346D-02
 Coeff:      0.360D-01 0.321D-01-0.763D-01-0.245D+00-0.355D-01 0.418D+00
 Coeff:      0.872D+00
 Gap=     0.112 Goal=   None    Shift=    0.000
 Gap=     0.153 Goal=   None    Shift=    0.000
 RMSDP=1.68D-06 MaxDP=4.30D-04 DE=-4.65D-06 OVMax= 3.08D-03

 Cycle  14  Pass 1  IDiag  1:
 RMSU=  3.93D-07    CP:  9.91D-01  2.16D+00  7.46D-01  7.82D-01  1.40D+00
                    CP:  1.46D+00  1.70D+00  1.71D+00  1.97D+00  2.68D+00
                    CP:  2.33D+00  2.53D+00  1.85D+00
 E= -3382.41107469726     Delta-E=       -0.000003266878 Rises=F Damp=F
 DIIS: error= 2.14D-05 at cycle  14 NSaved=  14.
 NSaved=14 IEnMin=14 EnMin= -3382.41107469726     IErMin=14 ErrMin= 2.14D-05
 ErrMax= 2.14D-05  0.00D+00 EMaxC= 1.00D-01 BMatC= 8.81D-07 BMatP= 1.60D-06
 IDIUse=1 WtCom= 1.00D+00 WtEn= 0.00D+00
 Coeff-Com: -0.917D-04 0.105D-03-0.338D-03 0.945D-03-0.159D-02-0.138D-02
 Coeff-Com:  0.816D-02 0.231D-01 0.267D-01-0.601D-01-0.202D+00-0.252D+00
 Coeff-Com:  0.342D+00 0.112D+01
 Coeff:     -0.917D-04 0.105D-03-0.338D-03 0.945D-03-0.159D-02-0.138D-02
 Coeff:      0.816D-02 0.231D-01 0.267D-01-0.601D-01-0.202D+00-0.252D+00
 Coeff:      0.342D+00 0.112D+01
 Gap=     0.112 Goal=   None    Shift=    0.000
 Gap=     0.153 Goal=   None    Shift=    0.000
 RMSDP=1.83D-06 MaxDP=5.11D-04 DE=-3.27D-06 OVMax= 3.52D-03

 Cycle  15  Pass 1  IDiag  1:
 RMSU=  4.99D-07    CP:  9.91D-01  2.16D+00  7.46D-01  7.83D-01  1.40D+00
                    CP:  1.45D+00  1.71D+00  1.72D+00  2.04D+00  2.98D+00
                    CP:  2.74D+00  3.00D+00  2.94D+00  2.15D+00
 E= -3382.41107735637     Delta-E=       -0.000002659108 Rises=F Damp=F
 DIIS: error= 1.61D-05 at cycle  15 NSaved=  15.
 NSaved=15 IEnMin=15 EnMin= -3382.41107735637     IErMin=15 ErrMin= 1.61D-05
 ErrMax= 1.61D-05  0.00D+00 EMaxC= 1.00D-01 BMatC= 4.91D-07 BMatP= 8.81D-07
 IDIUse=1 WtCom= 1.00D+00 WtEn= 0.00D+00
 Coeff-Com:  0.136D-04-0.404D-04-0.255D-03 0.544D-03 0.921D-03-0.371D-03
 Coeff-Com: -0.145D-01-0.195D-01 0.532D-01 0.124D+00-0.279D-01-0.360D+00
 Coeff-Com: -0.490D+00 0.525D+00 0.121D+01
 Coeff:      0.136D-04-0.404D-04-0.255D-03 0.544D-03 0.921D-03-0.371D-03
 Coeff:     -0.145D-01-0.195D-01 0.532D-01 0.124D+00-0.279D-01-0.360D+00
 Coeff:     -0.490D+00 0.525D+00 0.121D+01
 Gap=     0.112 Goal=   None    Shift=    0.000
 Gap=     0.153 Goal=   None    Shift=    0.000
 RMSDP=1.93D-06 MaxDP=5.08D-04 DE=-2.66D-06 OVMax= 3.72D-03

 Cycle  16  Pass 1  IDiag  1:
 RMSU=  1.22D-06    CP:  9.91D-01  2.16D+00  7.46D-01  7.83D-01  1.40D+00
                    CP:  1.45D+00  1.72D+00  1.73D+00  2.11D+00  3.00D+00
                    CP:  3.00D+00  3.00D+00  3.00D+00  3.00D+00  2.75D+00
 E= -3382.41107920109     Delta-E=       -0.000001844726 Rises=F Damp=F
 DIIS: error= 1.18D-05 at cycle  16 NSaved=  16.
 NSaved=16 IEnMin=16 EnMin= -3382.41107920109     IErMin=16 ErrMin= 1.18D-05
 ErrMax= 1.18D-05  0.00D+00 EMaxC= 1.00D-01 BMatC= 2.25D-07 BMatP= 4.91D-07
 IDIUse=1 WtCom= 1.00D+00 WtEn= 0.00D+00
 Coeff-Com:  0.503D-04-0.742D-04-0.137D-03-0.174D-03 0.107D-02 0.133D-02
 Coeff-Com: -0.108D-01-0.273D-01 0.171D-01 0.107D+00 0.999D-01-0.871D-01
 Coeff-Com: -0.522D+00-0.242D+00 0.755D+00 0.908D+00
 Coeff:      0.503D-04-0.742D-04-0.137D-03-0.174D-03 0.107D-02 0.133D-02
 Coeff:     -0.108D-01-0.273D-01 0.171D-01 0.107D+00 0.999D-01-0.871D-01
 Coeff:     -0.522D+00-0.242D+00 0.755D+00 0.908D+00
 Gap=     0.111 Goal=   None    Shift=    0.000
 Gap=     0.153 Goal=   None    Shift=    0.000
 RMSDP=1.34D-06 MaxDP=3.47D-04 DE=-1.84D-06 OVMax= 2.68D-03

 Cycle  17  Pass 1  IDiag  1:
 RMSU=  6.70D-07    CP:  9.91D-01  2.16D+00  7.45D-01  7.84D-01  1.40D+00
                    CP:  1.44D+00  1.73D+00  1.73D+00  2.16D+00  3.00D+00
                    CP:  3.00D+00  3.00D+00  3.00D+00  3.00D+00  3.00D+00
                    CP:  1.80D+00
 E= -3382.41107995849     Delta-E=       -0.000000757400 Rises=F Damp=F
 DIIS: error= 6.57D-06 at cycle  17 NSaved=  17.
 NSaved=17 IEnMin=17 EnMin= -3382.41107995849     IErMin=17 ErrMin= 6.57D-06
 ErrMax= 6.57D-06  0.00D+00 EMaxC= 1.00D-01 BMatC= 7.63D-08 BMatP= 2.25D-07
 IDIUse=1 WtCom= 1.00D+00 WtEn= 0.00D+00
 Coeff-Com:  0.231D-04-0.296D-04-0.294D-04-0.234D-03-0.350D-05 0.100D-02
 Coeff-Com:  0.178D-02-0.604D-02-0.140D-01 0.121D-03 0.619D-01 0.108D+00
 Coeff-Com: -0.556D-01-0.313D+00-0.161D+00 0.449D+00 0.930D+00
 Coeff:      0.231D-04-0.296D-04-0.294D-04-0.234D-03-0.350D-05 0.100D-02
 Coeff:      0.178D-02-0.604D-02-0.140D-01 0.121D-03 0.619D-01 0.108D+00
 Coeff:     -0.556D-01-0.313D+00-0.161D+00 0.449D+00 0.930D+00
 Gap=     0.111 Goal=   None    Shift=    0.000
 Gap=     0.153 Goal=   None    Shift=    0.000
 RMSDP=7.08D-07 MaxDP=1.84D-04 DE=-7.57D-07 OVMax= 1.44D-03

 Cycle  18  Pass 1  IDiag  1:
 RMSU=  1.48D-07    CP:  9.91D-01  2.16D+00  7.45D-01  7.84D-01  1.40D+00
                    CP:  1.44D+00  1.73D+00  1.74D+00  2.18D+00  3.00D+00
                    CP:  3.00D+00  3.00D+00  3.00D+00  3.00D+00  3.00D+00
                    CP:  2.21D+00  1.58D+00
 E= -3382.41108018759     Delta-E=       -0.000000229098 Rises=F Damp=F
 DIIS: error= 3.45D-06 at cycle  18 NSaved=  18.
 NSaved=18 IEnMin=18 EnMin= -3382.41108018759     IErMin=18 ErrMin= 3.45D-06
 ErrMax= 3.45D-06  0.00D+00 EMaxC= 1.00D-01 BMatC= 3.02D-08 BMatP= 7.63D-08
 IDIUse=1 WtCom= 1.00D+00 WtEn= 0.00D+00
 Coeff-Com:  0.871D-05-0.126D-04 0.131D-04-0.298D-04-0.460D-03 0.834D-05
 Coeff-Com:  0.561D-02 0.784D-02-0.152D-01-0.449D-01-0.708D-02 0.943D-01
 Coeff-Com:  0.190D+00-0.544D-01-0.437D+00-0.164D+00 0.524D+00 0.902D+00
 Coeff:      0.871D-05-0.126D-04 0.131D-04-0.298D-04-0.460D-03 0.834D-05
 Coeff:      0.561D-02 0.784D-02-0.152D-01-0.449D-01-0.708D-02 0.943D-01
 Coeff:      0.190D+00-0.544D-01-0.437D+00-0.164D+00 0.524D+00 0.902D+00
 Gap=     0.111 Goal=   None    Shift=    0.000
 Gap=     0.153 Goal=   None    Shift=    0.000
 RMSDP=4.51D-07 MaxDP=1.08D-04 DE=-2.29D-07 OVMax= 9.23D-04

 Cycle  19  Pass 1  IDiag  1:
 RMSU=  8.62D-08    CP:  9.91D-01  2.16D+00  7.45D-01  7.84D-01  1.40D+00
                    CP:  1.44D+00  1.73D+00  1.74D+00  2.20D+00  3.00D+00
                    CP:  3.00D+00  3.00D+00  3.00D+00  3.00D+00  3.00D+00
                    CP:  2.46D+00  1.97D+00  1.70D+00
 E= -3382.41108026826     Delta-E=       -0.000000080667 Rises=F Damp=F
 DIIS: error= 1.26D-06 at cycle  19 NSaved=  19.
 NSaved=19 IEnMin=19 EnMin= -3382.41108026826     IErMin=19 ErrMin= 1.26D-06
 ErrMax= 1.26D-06  0.00D+00 EMaxC= 1.00D-01 BMatC= 6.56D-09 BMatP= 3.02D-08
 IDIUse=1 WtCom= 1.00D+00 WtEn= 0.00D+00
 Coeff-Com: -0.212D-05 0.207D-05 0.717D-05 0.669D-04-0.186D-03-0.315D-03
 Coeff-Com:  0.158D-02 0.493D-02-0.376D-03-0.153D-01-0.256D-01-0.102D-01
 Coeff-Com:  0.829D-01 0.112D+00-0.885D-01-0.227D+00-0.172D+00 0.291D+00
 Coeff-Com:  0.105D+01
 Coeff:     -0.212D-05 0.207D-05 0.717D-05 0.669D-04-0.186D-03-0.315D-03
 Coeff:      0.158D-02 0.493D-02-0.376D-03-0.153D-01-0.256D-01-0.102D-01
 Coeff:      0.829D-01 0.112D+00-0.885D-01-0.227D+00-0.172D+00 0.291D+00
 Coeff:      0.105D+01
 Gap=     0.111 Goal=   None    Shift=    0.000
 Gap=     0.153 Goal=   None    Shift=    0.000
 RMSDP=1.97D-07 MaxDP=3.38D-05 DE=-8.07D-08 OVMax= 4.07D-04

 Cycle  20  Pass 1  IDiag  1:
 RMSU=  5.12D-08    CP:  9.91D-01  2.16D+00  7.45D-01  7.84D-01  1.40D+00
                    CP:  1.44D+00  1.73D+00  1.73D+00  2.20D+00  3.00D+00
                    CP:  3.00D+00  3.00D+00  3.00D+00  3.00D+00  3.00D+00
                    CP:  2.55D+00  2.12D+00  2.27D+00  1.74D+00
 E= -3382.41108028782     Delta-E=       -0.000000019560 Rises=F Damp=F
 DIIS: error= 4.39D-07 at cycle  20 NSaved=  20.
 NSaved=20 IEnMin=20 EnMin= -3382.41108028782     IErMin=20 ErrMin= 4.39D-07
 ErrMax= 4.39D-07  0.00D+00 EMaxC= 1.00D-01 BMatC= 2.03D-09 BMatP= 6.56D-09
 IDIUse=1 WtCom= 1.00D+00 WtEn= 0.00D+00
 Coeff-Com: -0.801D-06 0.449D-06-0.216D-05 0.359D-04 0.524D-04-0.960D-04
 Coeff-Com: -0.882D-03-0.288D-03 0.395D-02 0.618D-02-0.819D-02-0.301D-01
 Coeff-Com: -0.183D-01 0.621D-01 0.803D-01-0.496D-01-0.203D+00-0.122D+00
 Coeff-Com:  0.422D+00 0.857D+00
 Coeff:     -0.801D-06 0.449D-06-0.216D-05 0.359D-04 0.524D-04-0.960D-04
 Coeff:     -0.882D-03-0.288D-03 0.395D-02 0.618D-02-0.819D-02-0.301D-01
 Coeff:     -0.183D-01 0.621D-01 0.803D-01-0.496D-01-0.203D+00-0.122D+00
 Coeff:      0.422D+00 0.857D+00
 Gap=     0.111 Goal=   None    Shift=    0.000
 Gap=     0.153 Goal=   None    Shift=    0.000
 RMSDP=7.81D-08 MaxDP=1.26D-05 DE=-1.96D-08 OVMax= 1.34D-04

 Cycle  21  Pass 1  IDiag  1:
 Restarting incremental Fock formation.
 E= -3382.41108029160     Delta-E=       -0.000000003776 Rises=F Damp=F
 DIIS: error= 2.64D-07 at cycle  21 NSaved=  20.
 NSaved=20 IEnMin=20 EnMin= -3382.41108029160     IErMin=20 ErrMin= 2.64D-07
 ErrMax= 2.64D-07  0.00D+00 EMaxC= 1.00D-01 BMatC= 6.93D-10 BMatP= 2.03D-09
 IDIUse=1 WtCom= 1.00D+00 WtEn= 0.00D+00
 Coeff-Com: -0.332D-07-0.641D-05-0.560D-05 0.485D-04 0.756D-04-0.620D-03
 Coeff-Com: -0.148D-02 0.124D-02 0.576D-02 0.421D-02-0.704D-02-0.269D-01
 Coeff-Com: -0.715D-02 0.475D-01 0.399D-01-0.216D-01-0.116D+00-0.119D+00
 Coeff-Com:  0.299D+00 0.901D+00
 Coeff:     -0.332D-07-0.641D-05-0.560D-05 0.485D-04 0.756D-04-0.620D-03
 Coeff:     -0.148D-02 0.124D-02 0.576D-02 0.421D-02-0.704D-02-0.269D-01
 Coeff:     -0.715D-02 0.475D-01 0.399D-01-0.216D-01-0.116D+00-0.119D+00
 Coeff:      0.299D+00 0.901D+00
 Gap=     0.111 Goal=   None    Shift=    0.000
 Gap=     0.153 Goal=   None    Shift=    0.000
 RMSDP=4.33D-08 MaxDP=1.05D-05 DE=-3.78D-09 OVMax= 5.51D-05

 Cycle  22  Pass 1  IDiag  1:
 RMSU=  4.33D-08    CP:  1.00D+00
 E= -3382.41108029423     Delta-E=       -0.000000002638 Rises=F Damp=F
 DIIS: error= 2.39D-07 at cycle  22 NSaved=  20.
 NSaved=20 IEnMin=20 EnMin= -3382.41108029423     IErMin=20 ErrMin= 2.39D-07
 ErrMax= 2.39D-07  0.00D+00 EMaxC= 1.00D-01 BMatC= 3.71D-10 BMatP= 6.93D-10
 IDIUse=1 WtCom= 1.00D+00 WtEn= 0.00D+00
 Coeff-Com: -0.709D-05-0.150D-04-0.859D-05 0.882D-04 0.148D-03-0.592D-03
 Coeff-Com: -0.105D-02-0.666D-04 0.519D-02 0.839D-02-0.528D-02-0.259D-01
 Coeff-Com: -0.114D-01 0.365D-01 0.708D-01-0.689D-02-0.203D+00-0.202D+00
 Coeff-Com:  0.338D+00 0.997D+00
 Coeff:     -0.709D-05-0.150D-04-0.859D-05 0.882D-04 0.148D-03-0.592D-03
 Coeff:     -0.105D-02-0.666D-04 0.519D-02 0.839D-02-0.528D-02-0.259D-01
 Coeff:     -0.114D-01 0.365D-01 0.708D-01-0.689D-02-0.203D+00-0.202D+00
 Coeff:      0.338D+00 0.997D+00
 Gap=     0.111 Goal=   None    Shift=    0.000
 Gap=     0.153 Goal=   None    Shift=    0.000
 RMSDP=3.95D-08 MaxDP=1.04D-05 DE=-2.64D-09 OVMax= 4.40D-05

 Cycle  23  Pass 1  IDiag  1:
 RMSU=  1.17D-08    CP:  1.00D+00  1.87D+00
 E= -3382.41108029410     Delta-E=        0.000000000136 Rises=F Damp=F
 DIIS: error= 1.57D-07 at cycle  23 NSaved=  20.
 NSaved=20 IEnMin=19 EnMin= -3382.41108029423     IErMin=20 ErrMin= 1.57D-07
 ErrMax= 1.57D-07  0.00D+00 EMaxC= 1.00D-01 BMatC= 1.99D-10 BMatP= 3.71D-10
 IDIUse=1 WtCom= 1.00D+00 WtEn= 0.00D+00
 Coeff-Com:  0.271D-05-0.797D-05 0.258D-04 0.349D-03 0.289D-03-0.115D-02
 Coeff-Com: -0.280D-02 0.772D-03 0.754D-02 0.105D-01-0.766D-02-0.310D-01
 Coeff-Com: -0.324D-02 0.442D-01 0.507D-01-0.213D-01-0.240D+00-0.316D+00
 Coeff-Com:  0.456D+00 0.105D+01
 Coeff:      0.271D-05-0.797D-05 0.258D-04 0.349D-03 0.289D-03-0.115D-02
 Coeff:     -0.280D-02 0.772D-03 0.754D-02 0.105D-01-0.766D-02-0.310D-01
 Coeff:     -0.324D-02 0.442D-01 0.507D-01-0.213D-01-0.240D+00-0.316D+00
 Coeff:      0.456D+00 0.105D+01
 Gap=     0.111 Goal=   None    Shift=    0.000
 Gap=     0.153 Goal=   None    Shift=    0.000
 RMSDP=3.73D-08 MaxDP=1.01D-05 DE= 1.36D-10 OVMax= 4.07D-05

 Cycle  24  Pass 1  IDiag  1:
 RMSU=  8.55D-09    CP:  1.00D+00  2.66D+00  1.97D+00
 E= -3382.41108029640     Delta-E=       -0.000000002306 Rises=F Damp=F
 DIIS: error= 1.04D-07 at cycle  24 NSaved=  20.
 NSaved=20 IEnMin=20 EnMin= -3382.41108029640     IErMin=20 ErrMin= 1.04D-07
 ErrMax= 1.04D-07  0.00D+00 EMaxC= 1.00D-01 BMatC= 7.56D-11 BMatP= 1.99D-10
 IDIUse=1 WtCom= 1.00D+00 WtEn= 0.00D+00
 Coeff-Com: -0.143D-04-0.107D-04 0.203D-03 0.378D-03-0.281D-03-0.159D-02
 Coeff-Com: -0.145D-02 0.657D-03 0.680D-02 0.743D-02-0.941D-02-0.149D-01
 Coeff-Com: -0.106D-01 0.194D-01 0.814D-01-0.841D-02-0.285D+00-0.282D+00
 Coeff-Com:  0.434D+00 0.106D+01
 Coeff:     -0.143D-04-0.107D-04 0.203D-03 0.378D-03-0.281D-03-0.159D-02
 Coeff:     -0.145D-02 0.657D-03 0.680D-02 0.743D-02-0.941D-02-0.149D-01
 Coeff:     -0.106D-01 0.194D-01 0.814D-01-0.841D-02-0.285D+00-0.282D+00
 Coeff:      0.434D+00 0.106D+01
 Gap=     0.111 Goal=   None    Shift=    0.000
 Gap=     0.153 Goal=   None    Shift=    0.000
 RMSDP=2.97D-08 MaxDP=8.94D-06 DE=-2.31D-09 OVMax= 3.66D-05

 Cycle  25  Pass 1  IDiag  1:
 RMSU=  1.33D-08    CP:  1.00D+00  3.00D+00  2.92D+00  1.80D+00
 E= -3382.41108029607     Delta-E=        0.000000000333 Rises=F Damp=F
 DIIS: error= 6.02D-08 at cycle  25 NSaved=  20.
 NSaved=20 IEnMin=19 EnMin= -3382.41108029640     IErMin=20 ErrMin= 6.02D-08
 ErrMax= 6.02D-08  0.00D+00 EMaxC= 1.00D-01 BMatC= 3.81D-11 BMatP= 7.56D-11
 IDIUse=1 WtCom= 1.00D+00 WtEn= 0.00D+00
 Coeff-Com: -0.169D-04-0.790D-04 0.344D-04 0.412D-03 0.502D-03-0.114D-02
 Coeff-Com: -0.326D-02-0.113D-02 0.818D-02 0.772D-02-0.747D-02-0.259D-01
 Coeff-Com: -0.116D-01 0.595D-01 0.106D+00-0.140D-01-0.376D+00-0.255D+00
 Coeff-Com:  0.569D+00 0.944D+00
 Coeff:     -0.169D-04-0.790D-04 0.344D-04 0.412D-03 0.502D-03-0.114D-02
 Coeff:     -0.326D-02-0.113D-02 0.818D-02 0.772D-02-0.747D-02-0.259D-01
 Coeff:     -0.116D-01 0.595D-01 0.106D+00-0.140D-01-0.376D+00-0.255D+00
 Coeff:      0.569D+00 0.944D+00
 Gap=     0.111 Goal=   None    Shift=    0.000
 Gap=     0.153 Goal=   None    Shift=    0.000
 RMSDP=2.06D-08 MaxDP=5.76D-06 DE= 3.33D-10 OVMax= 2.40D-05

 Cycle  26  Pass 1  IDiag  1:
 RMSU=  1.10D-08    CP:  1.00D+00  3.00D+00  3.00D+00  2.49D+00  2.20D+00
 E= -3382.41108029632     Delta-E=       -0.000000000255 Rises=F Damp=F
 DIIS: error= 3.49D-08 at cycle  26 NSaved=  20.
 NSaved=20 IEnMin=18 EnMin= -3382.41108029640     IErMin=20 ErrMin= 3.49D-08
 ErrMax= 3.49D-08  0.00D+00 EMaxC= 1.00D-01 BMatC= 1.29D-11 BMatP= 3.81D-11
 IDIUse=1 WtCom= 1.00D+00 WtEn= 0.00D+00
 Coeff-Com: -0.822D-04-0.117D-03 0.226D-03 0.700D-03 0.135D-03-0.136D-02
 Coeff-Com: -0.302D-02 0.173D-03 0.631D-02 0.335D-02-0.520D-02-0.127D-01
 Coeff-Com: -0.109D-01 0.464D-01 0.116D+00-0.470D-01-0.284D+00-0.183D+00
 Coeff-Com:  0.359D+00 0.102D+01
 Coeff:     -0.822D-04-0.117D-03 0.226D-03 0.700D-03 0.135D-03-0.136D-02
 Coeff:     -0.302D-02 0.173D-03 0.631D-02 0.335D-02-0.520D-02-0.127D-01
 Coeff:     -0.109D-01 0.464D-01 0.116D+00-0.470D-01-0.284D+00-0.183D+00
 Coeff:      0.359D+00 0.102D+01
 Gap=     0.111 Goal=   None    Shift=    0.000
 Gap=     0.153 Goal=   None    Shift=    0.000
 RMSDP=1.22D-08 MaxDP=3.35D-06 DE=-2.55D-10 OVMax= 1.44D-05

 Cycle  27  Pass 1  IDiag  1:
 RMSU=  2.84D-09    CP:  1.00D+00  3.00D+00  3.00D+00  2.87D+00  2.92D+00
                    CP:  1.57D+00
 E= -3382.41108029659     Delta-E=       -0.000000000269 Rises=F Damp=F
 DIIS: error= 3.23D-08 at cycle  27 NSaved=  20.
 NSaved=20 IEnMin=20 EnMin= -3382.41108029659     IErMin=20 ErrMin= 3.23D-08
 ErrMax= 3.23D-08  0.00D+00 EMaxC= 1.00D-01 BMatC= 5.53D-12 BMatP= 1.29D-11
 IDIUse=1 WtCom= 1.00D+00 WtEn= 0.00D+00
 Coeff-Com: -0.708D-04-0.750D-04 0.152D-03 0.611D-03 0.687D-03-0.116D-02
 Coeff-Com: -0.315D-02 0.370D-03 0.445D-02 0.674D-02-0.215D-02-0.263D-01
 Coeff-Com: -0.144D-01 0.619D-01 0.108D+00-0.398D-01-0.287D+00-0.206D+00
 Coeff-Com:  0.493D+00 0.904D+00
 Coeff:     -0.708D-04-0.750D-04 0.152D-03 0.611D-03 0.687D-03-0.116D-02
 Coeff:     -0.315D-02 0.370D-03 0.445D-02 0.674D-02-0.215D-02-0.263D-01
 Coeff:     -0.144D-01 0.619D-01 0.108D+00-0.398D-01-0.287D+00-0.206D+00
 Coeff:      0.493D+00 0.904D+00
 Gap=     0.111 Goal=   None    Shift=    0.000
 Gap=     0.153 Goal=   None    Shift=    0.000
 RMSDP=6.21D-09 MaxDP=1.70D-06 DE=-2.69D-10 OVMax= 7.56D-06

 Cycle  28  Pass 1  IDiag  1:
 RMSU=  4.08D-09    CP:  1.00D+00  3.00D+00  3.00D+00  3.00D+00  3.00D+00
                    CP:  1.83D+00  1.53D+00
 E= -3382.41108029620     Delta-E=        0.000000000393 Rises=F Damp=F
 DIIS: error= 1.90D-08 at cycle  28 NSaved=  20.
 NSaved=20 IEnMin=19 EnMin= -3382.41108029659     IErMin=20 ErrMin= 1.90D-08
 ErrMax= 1.90D-08  0.00D+00 EMaxC= 1.00D-01 BMatC= 2.48D-12 BMatP= 5.53D-12
 IDIUse=1 WtCom= 1.00D+00 WtEn= 0.00D+00
 Coeff-Com: -0.212D-04 0.142D-04 0.151D-03 0.200D-03-0.272D-03-0.101D-02
 Coeff-Com:  0.139D-03 0.135D-02 0.231D-02-0.376D-03-0.903D-02-0.710D-02
 Coeff-Com:  0.196D-01 0.496D-01 0.107D-01-0.114D+00-0.174D+00 0.499D-01
 Coeff-Com:  0.485D+00 0.687D+00
 Coeff:     -0.212D-04 0.142D-04 0.151D-03 0.200D-03-0.272D-03-0.101D-02
 Coeff:      0.139D-03 0.135D-02 0.231D-02-0.376D-03-0.903D-02-0.710D-02
 Coeff:      0.196D-01 0.496D-01 0.107D-01-0.114D+00-0.174D+00 0.499D-01
 Coeff:      0.485D+00 0.687D+00
 Gap=     0.111 Goal=   None    Shift=    0.000
 Gap=     0.153 Goal=   None    Shift=    0.000
 RMSDP=2.75D-09 MaxDP=6.56D-07 DE= 3.93D-10 OVMax= 3.08D-06

 Error on total polarization charges =  0.02727
 SCF Done:  E(UM062X) =  -3382.41108030     A.U. after   28 cycles
            NFock= 28  Conv=0.27D-08     -V/T= 2.0049
 <Sx>= 0.0000 <Sy>= 0.0000 <Sz>= 0.5000 <S**2>= 0.7716 S= 0.5108
 <L.S>= 0.000000000000E+00
 KE= 3.365815739856D+03 PE=-2.560021911115D+04 EE= 1.002236817578D+04
 Annihilation of the first spin contaminant:
 S**2 before annihilation     0.7716,   after     0.7502
 Leave Link  502 at Thu Nov  6 15:40:19 2025, MaxMem= 30870077440 cpu:          289490.5 elap:            4576.6
 (Enter /public/software/gauss/g16/l601.exe)
 Copying SCF densities to generalized density rwf, IOpCl= 1 IROHF=0.
 Hyperfine terms turned off by default for NAtoms > 100.

 **********************************************************************

            Population analysis using the SCF density.

 **********************************************************************

 Orbital symmetries:
 Alpha Orbitals:
       Occupied  (A) (A) (A) (A) (A) (A) (A) (A) (A) (A) (A) (A)
                 (A) (A) (A) (A) (A) (A) (A) (A) (A) (A) (A) (A)
                 (A) (A) (A) (A) (A) (A) (A) (A) (A) (A) (A) (A)
                 (A) (A) (A) (A) (A) (A) (A) (A) (A) (A) (A) (A)
                 (A) (A) (A) (A) (A) (A) (A) (A) (A) (A) (A) (A)
                 (A) (A) (A) (A) (A) (A) (A) (A) (A) (A) (A) (A)
                 (A) (A) (A) (A) (A) (A) (A) (A) (A) (A) (A) (A)
                 (A) (A) (A) (A) (A) (A) (A) (A) (A) (A) (A) (A)
                 (A) (A) (A) (A) (A) (A) (A) (A) (A) (A) (A) (A)
                 (A) (A) (A) (A) (A) (A) (A) (A) (A) (A) (A) (A)
                 (A) (A) (A) (A) (A) (A) (A) (A) (A) (A) (A) (A)
                 (A) (A) (A) (A) (A) (A) (A) (A) (A) (A) (A) (A)
                 (A) (A) (A) (A) (A) (A) (A) (A) (A) (A) (A) (A)
                 (A) (A) (A) (A) (A) (A) (A) (A) (A) (A) (A) (A)
                 (A) (A) (A) (A) (A) (A) (A) (A) (A) (A) (A) (A)
                 (A) (A) (A) (A) (A) (A) (A) (A) (A) (A) (A) (A)
                 (A) (A) (A) (A) (A) (A) (A) (A) (A) (A) (A) (A)
                 (A) (A) (A) (A) (A) (A) (A) (A) (A) (A) (A) (A)
                 (A) (A) (A) (A) (A) (A) (A) (A) (A) (A) (A) (A)
                 (A) (A) (A) (A) (A)
       Virtual   (A) (A) (A) (A) (A) (A) (A) (A) (A) (A) (A) (A)
                 (A) (A) (A) (A) (A) (A) (A) (A) (A) (A) (A) (A)
                 (A) (A) (A) (A) (A) (A) (A) (A) (A) (A) (A) (A)
                 (A) (A) (A) (A) (A) (A) (A) (A) (A) (A) (A) (A)
                 (A) (A) (A) (A) (A) (A) (A) (A) (A) (A) (A) (A)
                 (A) (A) (A) (A) (A) (A) (A) (A) (A) (A) (A) (A)
                 (A) (A) (A) (A) (A) (A) (A) (A) (A) (A) (A) (A)
                 (A) (A) (A) (A) (A) (A) (A) (A) (A) (A) (A) (A)
                 (A) (A) (A) (A) (A) (A) (A) (A) (A) (A) (A) (A)
                 (A) (A) (A) (A) (A) (A) (A) (A) (A) (A) (A) (A)
                 (A) (A) (A) (A) (A) (A) (A) (A) (A) (A) (A) (A)
                 (A) (A) (A) (A) (A) (A) (A) (A) (A) (A) (A) (A)
                 (A) (A) (A) (A) (A) (A) (A) (A) (A) (A) (A) (A)
                 (A) (A) (A) (A) (A) (A) (A) (A) (A) (A) (A) (A)
                 (A) (A) (A) (A) (A) (A) (A) (A) (A) (A) (A) (A)
                 (A) (A) (A) (A) (A) (A) (A) (A) (A) (A) (A) (A)
                 (A) (A) (A) (A) (A) (A) (A) (A) (A) (A) (A) (A)
                 (A) (A) (A) (A) (A) (A) (A) (A) (A) (A) (A) (A)
                 (A) (A) (A) (A) (A) (A) (A) (A) (A) (A) (A) (A)
                 (A) (A) (A) (A) (A) (A) (A) (A) (A) (A) (A) (A)
                 (A) (A) (A) (A) (A) (A) (A) (A) (A) (A) (A) (A)
                 (A) (A) (A) (A) (A) (A) (A) (A) (A) (A) (A) (A)
                 (A) (A) (A) (A) (A) (A) (A) (A) (A) (A) (A) (A)
                 (A) (A) (A) (A) (A) (A) (A) (A) (A) (A) (A) (A)
                 (A) (A) (A) (A) (A) (A) (A) (A) (A) (A) (A) (A)
                 (A) (A) (A) (A) (A) (A) (A) (A) (A) (A) (A) (A)
                 (A) (A) (A) (A) (A) (A) (A) (A) (A) (A) (A) (A)
                 (A) (A) (A) (A) (A) (A) (A) (A) (A) (A) (A) (A)
                 (A) (A) (A) (A) (A) (A) (A) (A) (A) (A) (A) (A)
                 (A) (A) (A) (A) (A) (A) (A) (A) (A) (A) (A) (A)
                 (A) (A) (A) (A) (A) (A) (A) (A) (A) (A) (A) (A)
                 (A) (A) (A) (A) (A) (A) (A) (A) (A) (A) (A) (A)
                 (A) (A) (A) (A) (A) (A) (A) (A) (A) (A) (A) (A)
                 (A) (A) (A) (A) (A) (A) (A) (A) (A) (A) (A) (A)
                 (A) (A) (A) (A) (A) (A) (A) (A) (A) (A) (A) (A)
                 (A) (A) (A) (A) (A) (A) (A) (A) (A) (A) (A) (A)
                 (A) (A) (A) (A) (A) (A) (A) (A) (A) (A) (A) (A)
                 (A) (A) (A) (A) (A) (A) (A) (A) (A) (A) (A) (A)
                 (A) (A) (A) (A) (A) (A) (A) (A) (A) (A) (A) (A)
                 (A) (A) (A) (A) (A) (A) (A) (A) (A) (A) (A) (A)
                 (A) (A) (A) (A) (A) (A) (A) (A) (A) (A) (A) (A)
                 (A) (A) (A) (A) (A) (A) (A) (A) (A) (A) (A) (A)
                 (A) (A) (A) (A) (A) (A) (A) (A) (A) (A) (A) (A)
                 (A) (A) (A) (A) (A) (A) (A) (A) (A) (A) (A) (A)
                 (A) (A) (A) (A) (A) (A) (A) (A) (A) (A) (A) (A)
                 (A) (A) (A) (A) (A) (A) (A) (A) (A) (A) (A) (A)
                 (A) (A) (A) (A) (A) (A) (A) (A) (A) (A) (A) (A)
                 (A) (A) (A) (A) (A) (A) (A) (A) (A) (A) (A) (A)
                 (A) (A) (A) (A) (A) (A) (A) (A) (A) (A) (A) (A)
                 (A) (A) (A) (A) (A) (A) (A) (A) (A) (A) (A) (A)
                 (A) (A) (A) (A) (A) (A) (A) (A) (A) (A) (A) (A)
                 (A) (A) (A) (A) (A) (A) (A) (A) (A) (A) (A) (A)
                 (A) (A) (A) (A) (A) (A) (A) (A) (A) (A) (A) (A)
                 (A) (A) (A) (A) (A) (A) (A) (A) (A) (A) (A) (A)
                 (A) (A) (A) (A) (A) (A) (A) (A) (A) (A) (A) (A)
                 (A) (A) (A) (A) (A) (A) (A) (A) (A) (A) (A) (A)
                 (A) (A) (A) (A) (A) (A) (A) (A) (A) (A) (A) (A)
                 (A) (A) (A) (A) (A) (A) (A) (A) (A) (A) (A) (A)
                 (A) (A) (A) (A) (A) (A) (A) (A) (A) (A) (A) (A)
                 (A) (A) (A) (A) (A) (A) (A) (A) (A) (A) (A) (A)
                 (A) (A) (A) (A) (A) (A) (A) (A) (A) (A) (A) (A)
                 (A) (A) (A) (A) (A) (A) (A) (A) (A) (A) (A) (A)
                 (A) (A) (A) (A) (A) (A) (A) (A) (A) (A) (A) (A)
                 (A) (A) (A) (A) (A) (A) (A) (A) (A) (A) (A) (A)
                 (A) (A) (A) (A) (A) (A) (A) (A) (A) (A) (A) (A)
                 (A) (A) (A) (A) (A) (A) (A) (A) (A) (A) (A) (A)
                 (A) (A) (A) (A) (A) (A) (A) (A) (A) (A) (A) (A)
                 (A) (A) (A) (A) (A) (A) (A) (A) (A) (A) (A) (A)
                 (A) (A) (A) (A) (A) (A) (A) (A) (A) (A) (A) (A)
                 (A) (A) (A) (A) (A) (A) (A) (A) (A) (A) (A) (A)
                 (A) (A) (A) (A) (A) (A) (A) (A) (A) (A) (A) (A)
                 (A) (A) (A) (A) (A) (A) (A) (A) (A) (A) (A) (A)
                 (A) (A) (A) (A) (A) (A) (A) (A) (A) (A) (A) (A)
                 (A) (A) (A) (A) (A) (A) (A) (A) (A) (A) (A) (A)
                 (A) (A) (A) (A) (A) (A) (A) (A) (A) (A) (A) (A)
                 (A) (A) (A) (A) (A) (A) (A) (A) (A) (A) (A) (A)
                 (A) (A) (A) (A) (A) (A) (A) (A) (A) (A) (A) (A)
                 (A) (A) (A) (A) (A) (A) (A) (A) (A) (A) (A) (A)
                 (A) (A) (A) (A) (A) (A) (A) (A) (A) (A) (A) (A)
                 (A) (A) (A) (A) (A) (A) (A) (A) (A) (A) (A) (A)
                 (A) (A) (A) (A) (A) (A) (A) (A) (A) (A) (A) (A)
                 (A) (A) (A) (A) (A) (A) (A) (A) (A) (A) (A) (A)
                 (A) (A) (A) (A) (A) (A) (A) (A) (A) (A) (A) (A)
                 (A) (A) (A) (A) (A) (A) (A) (A) (A) (A) (A) (A)
                 (A) (A) (A) (A) (A) (A) (A) (A) (A) (A) (A) (A)
                 (A) (A) (A) (A) (A) (A) (A) (A) (A) (A) (A) (A)
                 (A) (A) (A) (A) (A) (A) (A) (A) (A) (A) (A) (A)
                 (A) (A) (A) (A) (A) (A) (A) (A) (A) (A) (A) (A)
                 (A) (A) (A) (A) (A) (A) (A) (A) (A) (A) (A) (A)
                 (A) (A) (A) (A) (A) (A) (A) (A) (A) (A) (A) (A)
                 (A) (A) (A) (A) (A) (A) (A) (A) (A) (A) (A) (A)
                 (A) (A) (A) (A) (A) (A) (A) (A) (A) (A) (A) (A)
                 (A) (A) (A) (A) (A) (A) (A) (A) (A) (A) (A) (A)
                 (A) (A) (A) (A) (A) (A) (A) (A) (A) (A) (A) (A)
                 (A) (A) (A) (A) (A) (A) (A) (A) (A) (A) (A) (A)
                 (A) (A) (A) (A) (A) (A) (A) (A) (A) (A) (A) (A)
                 (A) (A) (A) (A) (A) (A) (A) (A) (A) (A) (A) (A)
                 (A) (A) (A) (A) (A) (A) (A) (A) (A) (A) (A) (A)
                 (A) (A) (A) (A) (A) (A) (A) (A) (A) (A) (A) (A)
                 (A) (A) (A) (A) (A) (A) (A) (A) (A) (A) (A) (A)
                 (A) (A) (A) (A) (A) (A) (A) (A) (A) (A) (A) (A)
                 (A) (A) (A) (A) (A) (A) (A) (A) (A) (A) (A) (A)
                 (A) (A) (A) (A) (A) (A) (A) (A) (A) (A) (A) (A)
                 (A) (A) (A) (A) (A) (A) (A) (A) (A) (A) (A) (A)
                 (A) (A) (A) (A) (A) (A) (A) (A) (A) (A) (A) (A)
                 (A) (A) (A) (A) (A) (A) (A) (A) (A) (A) (A) (A)
                 (A) (A) (A) (A) (A) (A) (A) (A) (A) (A) (A) (A)
                 (A) (A) (A) (A) (A) (A) (A) (A) (A) (A) (A) (A)
                 (A) (A) (A) (A) (A) (A) (A) (A) (A) (A) (A) (A)
                 (A) (A) (A) (A) (A) (A) (A) (A) (A) (A) (A) (A)
                 (A) (A) (A) (A) (A) (A) (A) (A) (A) (A) (A) (A)
                 (A) (A) (A) (A) (A) (A) (A) (A) (A) (A) (A) (A)
                 (A) (A) (A) (A) (A) (A) (A) (A) (A) (A) (A) (A)
                 (A) (A) (A) (A) (A) (A) (A) (A) (A) (A) (A) (A)
                 (A) (A) (A) (A) (A) (A) (A) (A) (A) (A) (A) (A)
                 (A) (A) (A) (A) (A) (A) (A) (A) (A) (A) (A) (A)
                 (A) (A) (A) (A) (A) (A) (A) (A) (A) (A) (A) (A)
                 (A) (A) (A) (A) (A) (A) (A) (A) (A) (A) (A) (A)
                 (A) (A) (A) (A) (A) (A) (A) (A) (A) (A) (A) (A)
                 (A) (A) (A) (A) (A) (A) (A) (A) (A) (A) (A) (A)
                 (A) (A) (A) (A) (A) (A) (A) (A) (A) (A) (A) (A)
                 (A) (A) (A) (A) (A) (A) (A) (A) (A) (A) (A) (A)
                 (A) (A) (A) (A) (A) (A) (A) (A) (A) (A) (A) (A)
                 (A) (A) (A) (A) (A) (A) (A) (A) (A) (A) (A) (A)
                 (A) (A) (A) (A) (A) (A) (A) (A) (A) (A) (A) (A)
                 (A) (A) (A) (A) (A) (A) (A) (A) (A) (A) (A) (A)
                 (A) (A) (A) (A) (A) (A) (A) (A) (A) (A) (A) (A)
                 (A) (A) (A) (A) (A) (A) (A) (A) (A) (A) (A) (A)
                 (A) (A) (A) (A) (A) (A) (A) (A) (A) (A) (A) (A)
                 (A) (A) (A) (A) (A) (A) (A) (A) (A) (A) (A) (A)
                 (A) (A) (A) (A) (A) (A) (A) (A) (A) (A) (A) (A)
                 (A) (A) (A) (A) (A) (A) (A) (A) (A) (A) (A) (A)
                 (A) (A) (A) (A) (A) (A) (A) (A) (A) (A) (A) (A)
                 (A) (A) (A) (A) (A) (A) (A) (A) (A) (A) (A) (A)
                 (A) (A) (A) (A) (A) (A) (A) (A) (A) (A) (A) (A)
                 (A) (A) (A) (A) (A) (A) (A) (A) (A) (A) (A) (A)
                 (A) (A) (A) (A) (A) (A) (A) (A) (A) (A) (A) (A)
                 (A) (A) (A) (A) (A) (A) (A) (A) (A) (A) (A) (A)
                 (A) (A) (A) (A) (A) (A) (A) (A) (A) (A) (A) (A)
                 (A) (A) (A) (A) (A) (A) (A) (A) (A) (A) (A) (A)
                 (A) (A) (A) (A) (A) (A) (A) (A) (A) (A) (A) (A)
                 (A) (A) (A) (A) (A) (A) (A) (A) (A) (A) (A) (A)
                 (A) (A) (A) (A) (A) (A) (A) (A) (A) (A) (A) (A)
                 (A) (A) (A) (A) (A) (A) (A) (A) (A) (A) (A) (A)
                 (A) (A) (A) (A) (A) (A) (A) (A) (A) (A) (A) (A)
                 (A) (A) (A) (A) (A) (A) (A) (A) (A) (A) (A) (A)
                 (A) (A) (A) (A) (A) (A) (A) (A) (A) (A) (A) (A)
                 (A) (A) (A) (A) (A) (A) (A) (A) (A) (A) (A) (A)
                 (A) (A) (A) (A) (A) (A) (A) (A) (A) (A) (A) (A)
                 (A) (A) (A) (A) (A) (A) (A) (A) (A) (A) (A) (A)
                 (A) (A) (A) (A) (A) (A) (A) (A) (A) (A) (A) (A)
                 (A) (A) (A) (A) (A) (A) (A) (A) (A) (A) (A) (A)
                 (A) (A) (A) (A) (A) (A) (A) (A) (A) (A) (A) (A)
                 (A) (A) (A) (A) (A) (A) (A) (A) (A) (A) (A) (A)
                 (A) (A) (A) (A) (A) (A) (A) (A) (A) (A) (A) (A)
                 (A) (A) (A) (A) (A) (A) (A) (A) (A) (A) (A) (A)
                 (A) (A) (A) (A) (A) (A) (A) (A) (A) (A) (A) (A)
                 (A) (A) (A) (A) (A) (A) (A) (A) (A) (A) (A) (A)
                 (A) (A) (A) (A) (A) (A) (A) (A) (A) (A) (A) (A)
                 (A) (A) (A) (A) (A) (A) (A) (A) (A) (A) (A) (A)
                 (A) (A) (A) (A) (A) (A) (A) (A) (A) (A) (A) (A)
                 (A) (A) (A) (A) (A) (A) (A) (A) (A) (A) (A) (A)
                 (A) (A) (A) (A) (A) (A) (A) (A) (A) (A) (A) (A)
                 (A) (A) (A) (A) (A) (A) (A) (A) (A) (A) (A) (A)
                 (A) (A) (A) (A) (A) (A) (A) (A) (A) (A) (A) (A)
                 (A) (A) (A) (A) (A) (A) (A) (A) (A) (A) (A) (A)
                 (A) (A) (A) (A) (A) (A) (A) (A) (A) (A) (A) (A)
                 (A) (A) (A) (A) (A) (A) (A) (A) (A) (A) (A) (A)
                 (A) (A) (A) (A) (A) (A) (A) (A) (A) (A) (A) (A)
                 (A) (A) (A) (A) (A) (A) (A) (A) (A) (A) (A) (A)
                 (A) (A) (A) (A) (A) (A) (A) (A) (A) (A) (A) (A)
                 (A) (A) (A) (A) (A) (A) (A) (A) (A) (A) (A) (A)
                 (A) (A) (A) (A) (A) (A) (A) (A) (A) (A) (A) (A)
                 (A) (A) (A) (A) (A) (A) (A) (A) (A) (A) (A) (A)
                 (A) (A) (A) (A) (A) (A) (A) (A) (A) (A) (A) (A)
                 (A) (A) (A) (A) (A) (A) (A) (A) (A) (A) (A) (A)
                 (A) (A) (A) (A) (A) (A) (A) (A) (A) (A) (A) (A)
                 (A) (A) (A) (A) (A) (A) (A) (A) (A) (A) (A) (A)
                 (A) (A) (A) (A) (A) (A) (A) (A) (A) (A) (A) (A)
                 (A) (A) (A) (A) (A) (A) (A) (A) (A) (A) (A) (A)
                 (A) (A) (A) (A) (A) (A) (A) (A) (A) (A) (A) (A)
                 (A) (A) (A) (A) (A) (A) (A) (A) (A) (A) (A) (A)
                 (A) (A) (A) (A) (A) (A) (A) (A) (A) (A) (A) (A)
                 (A) (A) (A) (A) (A) (A) (A) (A) (A) (A) (A) (A)
                 (A) (A) (A) (A) (A) (A) (A) (A) (A) (A) (A) (A)
                 (A) (A) (A) (A) (A) (A) (A) (A) (A) (A) (A) (A)
                 (A) (A) (A) (A) (A) (A) (A) (A) (A) (A) (A) (A)
                 (A) (A) (A) (A) (A) (A) (A) (A) (A) (A) (A) (A)
                 (A) (A) (A) (A) (A) (A) (A) (A) (A) (A) (A) (A)
                 (A) (A) (A) (A) (A) (A) (A) (A) (A) (A) (A) (A)
                 (A) (A) (A) (A) (A) (A) (A) (A) (A) (A) (A) (A)
                 (A) (A) (A) (A) (A)
 Beta  Orbitals:
       Occupied  (A) (A) (A) (A) (A) (A) (A) (A) (A) (A) (A) (A)
                 (A) (A) (A) (A) (A) (A) (A) (A) (A) (A) (A) (A)
                 (A) (A) (A) (A) (A) (A) (A) (A) (A) (A) (A) (A)
                 (A) (A) (A) (A) (A) (A) (A) (A) (A) (A) (A) (A)
                 (A) (A) (A) (A) (A) (A) (A) (A) (A) (A) (A) (A)
                 (A) (A) (A) (A) (A) (A) (A) (A) (A) (A) (A) (A)
                 (A) (A) (A) (A) (A) (A) (A) (A) (A) (A) (A) (A)
                 (A) (A) (A) (A) (A) (A) (A) (A) (A) (A) (A) (A)
                 (A) (A) (A) (A) (A) (A) (A) (A) (A) (A) (A) (A)
                 (A) (A) (A) (A) (A) (A) (A) (A) (A) (A) (A) (A)
                 (A) (A) (A) (A) (A) (A) (A) (A) (A) (A) (A) (A)
                 (A) (A) (A) (A) (A) (A) (A) (A) (A) (A) (A) (A)
                 (A) (A) (A) (A) (A) (A) (A) (A) (A) (A) (A) (A)
                 (A) (A) (A) (A) (A) (A) (A) (A) (A) (A) (A) (A)
                 (A) (A) (A) (A) (A) (A) (A) (A) (A) (A) (A) (A)
                 (A) (A) (A) (A) (A) (A) (A) (A) (A) (A) (A) (A)
                 (A) (A) (A) (A) (A) (A) (A) (A) (A) (A) (A) (A)
                 (A) (A) (A) (A) (A) (A) (A) (A) (A) (A) (A) (A)
                 (A) (A) (A) (A) (A) (A) (A) (A) (A) (A) (A) (A)
                 (A) (A) (A) (A)
       Virtual   (A) (A) (A) (A) (A) (A) (A) (A) (A) (A) (A) (A)
                 (A) (A) (A) (A) (A) (A) (A) (A) (A) (A) (A) (A)
                 (A) (A) (A) (A) (A) (A) (A) (A) (A) (A) (A) (A)
                 (A) (A) (A) (A) (A) (A) (A) (A) (A) (A) (A) (A)
                 (A) (A) (A) (A) (A) (A) (A) (A) (A) (A) (A) (A)
[...]
  Beta virt. eigenvalues --    4.41412   4.41603   4.41908   4.42266   4.43161
  Beta virt. eigenvalues --    4.43517   4.44153   4.45106   4.45563   4.45932
  Beta virt. eigenvalues --    4.46175   4.46394   4.46887   4.47446   4.47811
  Beta virt. eigenvalues --    4.48305   4.48571   4.48817   4.48986   4.49362
  Beta virt. eigenvalues --    4.49716   4.50255   4.51383   4.51524   4.52005
  Beta virt. eigenvalues --    4.52548   4.52761   4.53139   4.53698   4.54666
  Beta virt. eigenvalues --    4.55046   4.55891   4.56046   4.56465   4.56845
  Beta virt. eigenvalues --    4.57375   4.57782   4.58178   4.58757   4.59105
  Beta virt. eigenvalues --    4.59343   4.59777   4.60081   4.60269   4.60465
  Beta virt. eigenvalues --    4.60655   4.60729   4.60779   4.61303   4.61588
  Beta virt. eigenvalues --    4.61816   4.62229   4.62403   4.62848   4.63074
  Beta virt. eigenvalues --    4.63232   4.63412   4.63637   4.64503   4.65148
  Beta virt. eigenvalues --    4.65853   4.65894   4.66521   4.66831   4.67027
  Beta virt. eigenvalues --    4.67136   4.67486   4.67586   4.67990   4.68093
  Beta virt. eigenvalues --    4.68324   4.68784   4.69357   4.69633   4.69964
  Beta virt. eigenvalues --    4.70153   4.70653   4.70868   4.71066   4.71289
  Beta virt. eigenvalues --    4.71536   4.71864   4.72246   4.72295   4.72923
  Beta virt. eigenvalues --    4.73184   4.73366   4.73652   4.73750   4.74066
  Beta virt. eigenvalues --    4.74183   4.74385   4.74652   4.74908   4.75346
  Beta virt. eigenvalues --    4.75567   4.76007   4.76696   4.77294   4.77481
  Beta virt. eigenvalues --    4.78663   4.79073   4.79347   4.79567   4.79771
  Beta virt. eigenvalues --    4.80172   4.81030   4.81946   4.82184   4.82544
  Beta virt. eigenvalues --    4.82815   4.82927   4.83376   4.84353   4.84856
  Beta virt. eigenvalues --    4.85651   4.86337   4.86371   4.86809   4.87701
  Beta virt. eigenvalues --    4.88193   4.88730   4.89341   4.89825   4.90051
  Beta virt. eigenvalues --    4.90427   4.90874   4.91029   4.91460   4.91511
  Beta virt. eigenvalues --    4.91868   4.92656   4.93044   4.93470   4.93822
  Beta virt. eigenvalues --    4.94017   4.94152   4.94281   4.94714   4.94862
  Beta virt. eigenvalues --    4.95027   4.95185   4.95575   4.95708   4.96020
  Beta virt. eigenvalues --    4.96263   4.96469   4.97213   4.97513   4.97781
  Beta virt. eigenvalues --    4.98630   4.98896   4.99284   4.99664   5.00663
  Beta virt. eigenvalues --    5.01300   5.01658   5.02298   5.03010   5.03129
  Beta virt. eigenvalues --    5.04114   5.04278   5.05333   5.05782   5.06306
  Beta virt. eigenvalues --    5.06467   5.06549   5.07566   5.08067   5.09243
  Beta virt. eigenvalues --    5.10497   5.10917   5.11053   5.11270   5.11860
  Beta virt. eigenvalues --    5.12384   5.12795   5.12856   5.13595   5.13689
  Beta virt. eigenvalues --    5.13885   5.14140   5.14641   5.14944   5.15097
  Beta virt. eigenvalues --    5.15296   5.15653   5.15914   5.16076   5.16209
  Beta virt. eigenvalues --    5.16364   5.16878   5.17146   5.17416   5.17940
  Beta virt. eigenvalues --    5.18270   5.18494   5.18862   5.19603   5.19838
  Beta virt. eigenvalues --    5.20126   5.20307   5.20561   5.20985   5.21231
  Beta virt. eigenvalues --    5.22119   5.22180   5.22385   5.22739   5.23259
  Beta virt. eigenvalues --    5.23598   5.23821   5.24224   5.24887   5.25161
  Beta virt. eigenvalues --    5.25689   5.26046   5.26327   5.26385   5.26986
  Beta virt. eigenvalues --    5.27307   5.27663   5.27934   5.28041   5.28186
  Beta virt. eigenvalues --    5.28388   5.28633   5.28896   5.29311   5.29557
  Beta virt. eigenvalues --    5.29896   5.30027   5.30243   5.30314   5.30734
  Beta virt. eigenvalues --    5.30796   5.31226   5.31488   5.31827   5.32054
  Beta virt. eigenvalues --    5.32432   5.32724   5.33449   5.34303   5.34687
  Beta virt. eigenvalues --    5.35009   5.35233   5.35388   5.35651   5.36884
  Beta virt. eigenvalues --    5.37476   5.37660   5.37928   5.38528   5.39196
  Beta virt. eigenvalues --    5.39632   5.39983   5.40477   5.40650   5.41251
  Beta virt. eigenvalues --    5.41563   5.41653   5.42084   5.43107   5.43941
  Beta virt. eigenvalues --    5.44207   5.44788   5.45145   5.45819   5.46064
  Beta virt. eigenvalues --    5.46282   5.47662   5.47731   5.47897   5.48123
  Beta virt. eigenvalues --    5.48918   5.49240   5.49703   5.50559   5.52023
  Beta virt. eigenvalues --    5.52050   5.52764   5.52862   5.53217   5.53427
  Beta virt. eigenvalues --    5.54006   5.55083   5.55620   5.56034   5.56109
  Beta virt. eigenvalues --    5.56562   5.57064   5.57839   5.58148   5.59020
  Beta virt. eigenvalues --    5.59128   5.59468   5.59631   5.60174   5.60759
  Beta virt. eigenvalues --    5.61742   5.61973   5.62161   5.62542   5.62870
  Beta virt. eigenvalues --    5.63420   5.63627   5.64166   5.64623   5.65126
  Beta virt. eigenvalues --    5.65753   5.65984   5.66780   5.67026   5.67359
  Beta virt. eigenvalues --    5.67778   5.68000   5.69863   5.70049   5.70851
  Beta virt. eigenvalues --    5.70981   5.71136   5.72363   5.73171   5.73781
  Beta virt. eigenvalues --    5.74335   5.75854   5.76361   5.76613   5.78191
  Beta virt. eigenvalues --    5.79004   5.82477   5.84383   5.84407   5.86146
  Beta virt. eigenvalues --    5.87459   5.89670   5.90647   5.90802   5.91465
  Beta virt. eigenvalues --    5.92505   5.92730   5.93768   5.94098   5.96898
  Beta virt. eigenvalues --    5.99182   6.00562   6.01760   6.02595   6.02904
  Beta virt. eigenvalues --    6.04062   6.05027   6.10890   6.10982   6.12593
  Beta virt. eigenvalues --    6.14982   6.17076   6.21308   6.22302   6.22518
  Beta virt. eigenvalues --    6.23567   6.23894   6.24998   6.25730   6.26835
  Beta virt. eigenvalues --    6.27731   6.28254   6.31553   6.32821   6.34052
  Beta virt. eigenvalues --    6.34585   6.37340   6.41143   6.41590   6.43351
  Beta virt. eigenvalues --    6.43838   6.44453   6.47634   6.49131   6.51793
  Beta virt. eigenvalues --    6.55085   6.56748   6.61157   6.64779   6.66943
  Beta virt. eigenvalues --    6.68598   6.69447   6.69629   6.70945   6.72518
  Beta virt. eigenvalues --    6.73128   6.73995   6.74748   6.78135   6.80343
  Beta virt. eigenvalues --    6.81987   6.82454   6.83872   6.83886   6.84890
  Beta virt. eigenvalues --    6.85674   6.85781   6.86029   6.87035   6.88826
  Beta virt. eigenvalues --    6.94060   6.94561   6.97217   6.97589   6.98640
  Beta virt. eigenvalues --    6.99072   6.99879   7.02784   7.04240   7.05240
  Beta virt. eigenvalues --    7.07903   7.09410   7.10719   7.11603   7.17440
  Beta virt. eigenvalues --    7.18576   7.20072   7.20986   7.22458   7.24244
  Beta virt. eigenvalues --    7.25240   7.26971   7.28105   7.28969   7.32154
  Beta virt. eigenvalues --    7.33993   7.34729   7.45852   7.47360   7.52455
  Beta virt. eigenvalues --    7.54687   7.58541   7.60845   7.71944   7.84136
  Beta virt. eigenvalues --    8.45107   8.46590   8.56699   8.59021   8.82183
  Beta virt. eigenvalues --    8.87373   8.91031   8.91717   8.91960   9.00248
  Beta virt. eigenvalues --    9.43503   9.73889   9.91325  15.87460  22.30558
  Beta virt. eigenvalues --   22.82540  22.84259  22.85389  22.89466  22.91323
  Beta virt. eigenvalues --   22.95110  22.98906  23.09396  23.10613  23.10940
  Beta virt. eigenvalues --   23.15841  23.17756  23.20437  23.20739  23.21211
  Beta virt. eigenvalues --   23.21972  23.22435  23.24398  23.26415  23.26997
  Beta virt. eigenvalues --   23.27676  23.27918  23.29975  23.30640  23.34099
  Beta virt. eigenvalues --   23.34251  23.35056  23.36127  23.36655  23.37479
  Beta virt. eigenvalues --   23.39935  23.44003  23.45189  23.49109  23.58075
  Beta virt. eigenvalues --   23.61459  23.72168  23.74295  23.78880  23.85167
  Beta virt. eigenvalues --   23.87718  23.91290  24.07588  24.15489  24.19703
  Beta virt. eigenvalues --   24.21991  31.87847  32.42670  32.51856  32.53906
  Beta virt. eigenvalues --   33.12637  33.31042  33.36235  43.89188  44.03596
  Beta virt. eigenvalues --   44.19219  44.20589  44.26318  44.31927  44.43717
  Beta virt. eigenvalues --   44.61062  57.35306  57.56616
          Condensed to atoms (all electrons):
          Atomic-Atomic Spin Densities.
 Mulliken charges and spin densities:
               1          2
     1  C   -0.458017  -0.000001
     2  C    0.077308   0.000014
     3  C    0.127903  -0.000018
     4  C   -0.329951   0.000001
     5  C   -0.133888  -0.000001
     6  C   -0.157639   0.000000
     7  C   -0.140935  -0.000000
     8  C   -0.159490   0.000000
     9  C   -0.118107  -0.000002
    10  C    0.115025   0.000030
    11  C   -0.185705  -0.000089
    12  C   -0.056403   0.000077
    13  C    0.078162  -0.000249
    14  C   -0.173816   0.000302
    15  C   -0.141611   0.000012
    16  C    0.164695   0.000479
    17  O   -0.354197   0.000037
    18  S    0.912428   0.023109
    19  O   -0.501921   0.006855
    20  O   -0.500286   0.007707
    21  C   -0.152412   0.284601
    22  C   -0.066076  -0.101317
    23  C   -0.206934   0.277944
    24  C   -0.028328  -0.021529
    25  N    0.481193   0.012815
    26  O   -0.386418  -0.005577
    27  O   -0.391124   0.046882
    28  C   -0.024000  -0.005274
    29  C    0.016625   0.003911
    30  N    0.419694   0.155601
    31  O   -0.495627   0.156426
    32  O   -0.511910   0.172948
    33  C   -0.147016  -0.000408
    34  C   -0.140847   0.000166
    35  N   -0.093963  -0.000012
    36  C    0.097280  -0.000007
    37  C    0.119697  -0.000003
    38  C   -0.290396  -0.000001
    39  C   -0.131167   0.000001
    40  C   -0.156681   0.000000
    41  C    0.216040  -0.000000
    42  O   -0.301917  -0.000000
    43  C   -0.145074   0.000000
    44  C   -0.116130  -0.000000
    45  N   -0.401081  -0.000000
    46  N    0.433816   0.000000
    47  N   -0.229196  -0.000000
    48  C   -0.115374   0.000000
    49  C   -0.203011  -0.000001
    50  C    0.093654  -0.000009
    51  C    0.081584  -0.000007
    52  C   -0.489594   0.000001
    53  C    0.112069  -0.000002
    54  C   -0.110303   0.000000
    55  C   -0.187380  -0.000000
    56  C   -0.154225   0.000000
    57  C   -0.158661  -0.000000
    58  C   -0.153201   0.000000
    59  C   -0.192397  -0.000000
    60  C    0.110647  -0.000016
    61  C   -0.457728   0.000001
    62  N   -0.097046   0.000001
    63  B    0.359651  -0.000000
    64  F   -0.355970   0.000000
    65  F   -0.341663   0.000000
    66  H    0.173495   0.000001
    67  H    0.139006   0.000000
    68  H    0.159289   0.000001
    69  H    0.161475   0.000000
    70  H    0.158623  -0.000000
    71  H    0.158847   0.000000
    72  H    0.158345  -0.000000
    73  H    0.158083   0.000000
    74  H    0.127652  -0.000004
    75  H    0.140424  -0.000003
    76  H    0.156962   0.000038
    77  H    0.158222   0.000073
    78  H    0.177834  -0.000512
    79  H    0.187446  -0.013880
    80  H    0.200998  -0.001143
    81  H    0.172036   0.000042
    82  H    0.143754  -0.000008
    83  H    0.167216  -0.000000
    84  H    0.163557  -0.000000
    85  H    0.162951  -0.000000
    86  H    0.155889   0.000000
    87  H    0.166775   0.000000
    88  H    0.161530  -0.000000
    89  H    0.160810  -0.000000
    90  H    0.176757   0.000000
    91  H    0.163955  -0.000000
    92  H    0.175452  -0.000001
    93  H    0.150712  -0.000000
    94  H    0.166798   0.000000
    95  H    0.157693  -0.000000
    96  H    0.157691   0.000000
    97  H    0.157645  -0.000000
    98  H    0.166641   0.000000
    99  H    0.167703  -0.000001
   100  H    0.156527  -0.000000
   101  H    0.158548  -0.000001
 Sum of Mulliken charges =  -1.00000   1.00000
 Mulliken charges and spin densities with hydrogens summed into heavy atoms:
               1          2
     1  C    0.013773   0.000001
     2  C    0.077308   0.000014
     3  C    0.127903  -0.000018
     4  C   -0.329951   0.000001
     5  C    0.027587  -0.000001
     6  C    0.000984   0.000000
     7  C    0.017911  -0.000000
     8  C   -0.001145   0.000000
     9  C    0.039976  -0.000001
    10  C    0.115025   0.000030
    11  C   -0.058053  -0.000093
    12  C    0.084022   0.000074
    13  C    0.078162  -0.000249
    14  C   -0.016853   0.000341
    15  C    0.016612   0.000086
    16  C    0.164695   0.000479
    17  O   -0.354197   0.000037
    18  S    0.912428   0.023109
    19  O   -0.501921   0.006855
    20  O   -0.500286   0.007707
    21  C   -0.152412   0.284601
    22  C    0.111758  -0.101829
    23  C   -0.019488   0.264064
    24  C   -0.028328  -0.021529
    25  N    0.481193   0.012815
    26  O   -0.386418  -0.005577
    27  O   -0.391124   0.046882
    28  C    0.176998  -0.006417
    29  C    0.016625   0.003911
    30  N    0.419694   0.155601
    31  O   -0.495627   0.156426
    32  O   -0.511910   0.172948
    33  C    0.025020  -0.000367
    34  C    0.002907   0.000157
    35  N   -0.093963  -0.000012
    36  C    0.097280  -0.000007
    37  C    0.119697  -0.000003
    38  C   -0.290396  -0.000001
    39  C    0.036049   0.000000
    40  C    0.006876   0.000000
    41  C    0.216040  -0.000000
    42  O   -0.301917  -0.000000
    43  C    0.173766   0.000000
    44  C    0.212174   0.000000
    45  N   -0.401081  -0.000000
    46  N    0.433816   0.000000
    47  N   -0.229196  -0.000000
    48  C    0.045437   0.000000
    49  C   -0.026254  -0.000000
    50  C    0.093654  -0.000009
    51  C    0.081584  -0.000007
    52  C    0.000525  -0.000001
    53  C    0.112069  -0.000002
    54  C   -0.110303   0.000000
    55  C   -0.020582  -0.000000
    56  C    0.003468   0.000000
    57  C   -0.000971  -0.000000
    58  C    0.004445   0.000000
    59  C   -0.025756  -0.000000
    60  C    0.110647  -0.000016
    61  C    0.025051  -0.000001
    62  N   -0.097046   0.000001
    63  B    0.359651  -0.000000
    64  F   -0.355970   0.000000
    65  F   -0.341663   0.000000
 Electronic spatial extent (au):  <R**2>=         105041.5376
 Charge=             -1.0000 electrons
 Dipole moment (field-independent basis, Debye):
    X=             57.5138    Y=              4.3118    Z=             -8.2640  Tot=             58.2643
 Quadrupole moment (field-independent basis, Debye-Ang):
   XX=           -921.2261   YY=           -388.5084   ZZ=           -404.0523
   XY=            -26.9645   XZ=             57.4096   YZ=             38.5416
 Traceless Quadrupole moment (field-independent basis, Debye-Ang):
   XX=           -349.9638   YY=            182.7539   ZZ=            167.2099
   XY=            -26.9645   XZ=             57.4096   YZ=             38.5416
 Octapole moment (field-independent basis, Debye-Ang**2):
  XXX=           6959.5560  YYY=            221.9252  ZZZ=            -51.0096  XYY=            248.1486
  XXY=            451.5746  XXZ=           -774.3511  XZZ=            207.3932  YZZ=             25.3132
  YYZ=            -57.7766  XYZ=           -174.3422
 Hexadecapole moment (field-independent basis, Debye-Ang**3):
 XXXX=        -196539.2701 YYYY=         -24094.1098 ZZZZ=          -2843.8833 XXXY=           1807.4272
 XXXZ=           3951.7959 YYYX=           2430.7220 YYYZ=            996.4703 ZZZX=            302.0532
 ZZZY=            135.2362 XXYY=         -27685.0081 XXZZ=         -22104.8399 YYZZ=          -4669.7526
 XXYZ=           3296.0139 YYXZ=           -428.2095 ZZXY=           -243.6423
 N-N= 8.829624115220D+03 E-N=-2.560021910694D+04  KE= 3.365815739856D+03
 Leave Link  601 at Thu Nov  6 15:40:24 2025, MaxMem= 30870077440 cpu:             213.9 elap:               4.1
 (Enter /public/software/gauss/g16/l9999.exe)
 1\1\GINC-CU015\SP\UM062X\def2TZVPP\C46H36B1F2N7O8S1(1-,2)\BAIDING\06-N
 ov-2025\0\\#p M062X/DEF2TZVPP scrf=(solvent=water) em=GD3\\Energy calc
 ulation for M100033540_reduced\\-1,2\C,0,4.406466,-2.722621,-0.688786\
 C,0,3.313516,-1.70798,-0.537061\C,0,1.947374,-2.005618,-0.535672\C,0,1
 .352101,-3.362317,-0.634726\C,0,1.434235,-4.101068,-1.826488\C,0,0.886
 679,-5.383239,-1.90986\C,0,0.24751,-5.94692,-0.803895\C,0,0.160791,-5.
 22207,0.3878\C,0,0.709493,-3.94241,0.472418\C,0,1.239967,-0.78023,-0.3
 51849\C,0,-0.180874,-0.511959,-0.284421\C,0,-1.157677,-1.319965,-0.759
 813\C,0,-2.595502,-1.059246,-0.703289\C,0,-3.15732,0.103722,-0.134093\
 C,0,-4.532975,0.29616,-0.11054\C,0,-5.366055,-0.677419,-0.663673\O,0,-
 6.751871,-0.443691,-0.710523\S,0,-7.657428,-1.096885,0.541572\O,0,-7.9
 0648,-2.496987,0.173778\O,0,-6.91516,-0.812253,1.776826\C,0,-9.108684,
 -0.087105,0.307606\C,0,-9.032211,1.033624,-0.540153\C,0,-10.154789,1.7
 63214,-0.887505\C,0,-11.411171,1.349497,-0.383155\N,0,-12.598374,2.067
 905,-0.742247\O,0,-12.481015,3.055414,-1.497285\O,0,-13.704618,1.69126
 4,-0.30098\C,0,-11.526289,0.272429,0.477681\C,0,-10.38845,-0.442749,0.
 858687\N,0,-10.552789,-1.423962,1.853563\O,0,-9.511707,-1.923549,2.371
 123\O,0,-11.710815,-1.777181,2.218526\C,0,-4.850068,-1.837946,-1.23505
 1\C,0,-3.469864,-2.019253,-1.250969\N,0,2.143145,0.23294,-0.229993\C,0
 ,3.430005,-0.292842,-0.340547\C,0,4.560336,0.547625,-0.268035\C,0,5.92
 9144,-0.038255,-0.364362\C,0,6.646515,0.021252,-1.568917\C,0,7.924964,
 -0.516592,-1.660668\C,0,8.519221,-1.115877,-0.540943\O,0,9.793764,-1.5
 91685,-0.740943\C,0,10.507693,-2.202857,0.338971\C,0,10.136279,-3.6753
 44,0.460558\N,0,10.955987,-4.246982,1.558941\N,0,10.838683,-5.460729,1
 .727528\N,0,10.814963,-6.57569,1.978785\C,0,7.816222,-1.182535,0.66771
 6\C,0,6.528748,-0.647017,0.743069\C,0,4.413715,1.936881,-0.114658\C,0,
 5.371882,2.988244,0.052768\C,0,6.86291,2.877576,0.157762\C,0,4.640273,
 4.18078,0.17038\C,0,5.175239,5.546945,0.355986\C,0,4.688999,6.379806,1
 .380388\C,0,5.189604,7.670845,1.552088\C,0,6.190737,8.155477,0.707215\
 C,0,6.685463,7.339443,-0.312785\C,0,6.181467,6.050342,-0.488649\C,0,3.
 262631,3.84602,0.079894\C,0,2.082153,4.75842,0.116574\N,0,3.137055,2.5
 12895,-0.083927\B,0,1.800613,1.746217,-0.222324\F,0,0.965151,2.054892,
 0.863572\F,0,1.152188,2.100088,-1.415248\H,0,4.991268,-2.829414,0.2297
 18\H,0,3.981336,-3.698273,-0.931203\H,0,5.107052,-2.449456,-1.482727\H
 ,0,1.92298,-3.66346,-2.691959\H,0,0.958132,-5.938993,-2.840232\H,0,-0.
 179081,-6.943428,-0.86902\H,0,-0.331037,-5.65501,1.254004\H,0,0.642534
 ,-3.384146,1.401509\H,0,-0.443807,0.434094,0.175961\H,0,-0.885309,-2.2
 50545,-1.247802\H,0,-2.51716,0.868372,0.292534\H,0,-4.964801,1.191148,
 0.323472\H,0,-8.076077,1.329535,-0.9471\H,0,-10.078206,2.622839,-1.537
 836\H,0,-12.484763,-0.008124,0.890235\H,0,-5.517828,-2.575028,-1.66650
 1\H,0,-3.055954,-2.918489,-1.697334\H,0,6.19953,0.489644,-2.44025\H,0,
 8.481552,-0.474913,-2.591265\H,0,11.563559,-2.105324,0.076862\H,0,10.3
 38927,-1.668754,1.278851\H,0,9.072834,-3.795453,0.686969\H,0,10.350019
 ,-4.188838,-0.481705\H,0,8.24689,-1.647033,1.546304\H,0,5.988658,-0.70
 3778,1.683075\H,0,7.161258,2.051376,0.806923\H,0,7.332213,2.703363,-0.
 816527\H,0,7.279957,3.801537,0.563852\H,0,3.924854,6.005548,2.055036\H
 ,0,4.801327,8.295463,2.351337\H,0,6.581327,9.159717,0.842073\H,0,7.460
 134,7.708637,-0.978591\H,0,6.557873,5.431369,-1.297319\H,0,1.568981,4.
 701241,1.082923\H,0,2.391803,5.791847,-0.043245\H,0,1.358869,4.480495,
 -0.65418\\Version=ES64L-G16RevA.03\State=2-A\HF=-3382.4110803\S2=0.771
 626\S2-1=0.\S2A=0.750245\RMSD=2.745e-09\Dipole=22.6276717,1.6963796,-3
 .2513262\Quadrupole=-260.1895231,135.8730355,124.3164876,-20.0474286,4
 2.6826178,28.6547479\PG=C01 [X(C46H36B1F2N7O8S1)]\\@


 THOSE WHO TRY TO PASS CHEMISTRY OFF AS A NEW SCIENCE
 SHOW HOW LITTLE KNOWLEDGE THEY HAVE OF THE CHARACTER
 AND LITERATURE OF THE ANCIENTS.
   -- NICOLAS LEFEVRE
 "COURS DE CHYMIE" J.-N.LELOUP, PARIS, 1751
 Job cpu time:       3 days  9 hours 12 minutes 30.1 seconds.
 Elapsed time:       0 days  1 hours 17 minutes  2.4 seconds.
 File lengths (MBytes):  RWF=   6817 Int=      0 D2E=      0 Chk=    444 Scr=      1
 Normal termination of Gaussian 16 at Thu Nov  6 15:40:25 2025.
