 Entering Gaussian System, Link 0=g16
 Input=M100035680_sp.gjf
 Output=M100035680_sp.log
 Initial command:
 /work/home/accqbws0vm/apprepo/gaussian/16-hy/scripts/../app/g16/l1.exe "/work/home/accqbws0vm/1009_first_energy/tmp_M100035680_sp_25803945/Gau-17039.inp" -scrdir="/work/home/accqbws0vm/1009_first_energy/tmp_M100035680_sp_25803945/"
 Entering Link 1 = /work/home/accqbws0vm/apprepo/gaussian/16-hy/scripts/../app/g16/l1.exe PID=     17040.
  
 Copyright (c) 1988,1990,1992,1993,1995,1998,2003,2009,2016,
            Gaussian, Inc.  All Rights Reserved.
  
 This is part of the Gaussian(R) 16 program.  It is based on
 the Gaussian(R) 09 system (copyright 2009, Gaussian, Inc.),
 the Gaussian(R) 03 system (copyright 2003, Gaussian, Inc.),
 the Gaussian(R) 98 system (copyright 1998, Gaussian, Inc.),
 the Gaussian(R) 94 system (copyright 1995, Gaussian, Inc.),
 the Gaussian 92(TM) system (copyright 1992, Gaussian, Inc.),
 the Gaussian 90(TM) system (copyright 1990, Gaussian, Inc.),
 the Gaussian 88(TM) system (copyright 1988, Gaussian, Inc.),
 the Gaussian 86(TM) system (copyright 1986, Carnegie Mellon
 University), and the Gaussian 82(TM) system (copyright 1983,
 Carnegie Mellon University). Gaussian is a federally registered
 trademark of Gaussian, Inc.
  
 This software contains proprietary and confidential information,
 including trade secrets, belonging to Gaussian, Inc.
  
 This software is provided under written license and may be
 used, copied, transmitted, or stored only in accord with that
 written license.
  
 The following legend is applicable only to US Government
 contracts under FAR:
  
                    RESTRICTED RIGHTS LEGEND
  
 Use, reproduction and disclosure by the US Government is
 subject to restrictions as set forth in subparagraphs (a)
 and (c) of the Commercial Computer Software - Restricted
 Rights clause in FAR 52.227-19.
  
 Gaussian, Inc.
 340 Quinnipiac St., Bldg. 40, Wallingford CT 06492
  
  
 ---------------------------------------------------------------
 Warning -- This program may not be used in any manner that
 competes with the business of Gaussian, Inc. or will provide
 assistance to any competitor of Gaussian, Inc.  The licensee
 of this program is prohibited from giving any competitor of
 Gaussian, Inc. access to this program.  By using this program,
 the user acknowledges that Gaussian, Inc. is engaged in the
 business of creating and licensing software in the field of
 computational chemistry and represents and warrants to the
 licensee that it is not a competitor of Gaussian, Inc. and that
 it will not use this program in any manner prohibited above.
 ---------------------------------------------------------------
  

 Cite this work as:
 Gaussian 16, Revision A.03,
 M. J. Frisch, G. W. Trucks, H. B. Schlegel, G. E. Scuseria, 
 M. A. Robb, J. R. Cheeseman, G. Scalmani, V. Barone, 
 G. A. Petersson, H. Nakatsuji, X. Li, M. Caricato, A. V. Marenich, 
 J. Bloino, B. G. Janesko, R. Gomperts, B. Mennucci, H. P. Hratchian, 
 J. V. Ortiz, A. F. Izmaylov, J. L. Sonnenberg, D. Williams-Young, 
 F. Ding, F. Lipparini, F. Egidi, J. Goings, B. Peng, A. Petrone, 
 T. Henderson, D. Ranasinghe, V. G. Zakrzewski, J. Gao, N. Rega, 
 G. Zheng, W. Liang, M. Hada, M. Ehara, K. Toyota, R. Fukuda, 
 J. Hasegawa, M. Ishida, T. Nakajima, Y. Honda, O. Kitao, H. Nakai, 
 T. Vreven, K. Throssell, J. A. Montgomery, Jr., J. E. Peralta, 
 F. Ogliaro, M. J. Bearpark, J. J. Heyd, E. N. Brothers, K. N. Kudin, 
 V. N. Staroverov, T. A. Keith, R. Kobayashi, J. Normand, 
 K. Raghavachari, A. P. Rendell, J. C. Burant, S. S. Iyengar, 
 J. Tomasi, M. Cossi, J. M. Millam, M. Klene, C. Adamo, R. Cammi, 
 J. W. Ochterski, R. L. Martin, K. Morokuma, O. Farkas, 
 J. B. Foresman, and D. J. Fox, Gaussian, Inc., Wallingford CT, 2016.
 
 ******************************************
 Gaussian 16:  ES64L-G16RevA.03 25-Dec-2016
                 9-Oct-2025 
 ******************************************
 %nprocshared=64
 Will use up to   64 processors via shared memory.
 %mem=230GB
 %chk=M100035680_sp.chk
 ----------------------------------------------
 #p M062X/DEF2TZVPP scrf=(solvent=water) em=GD3
 ----------------------------------------------
 1/38=1,172=1/1;
 2/12=2,17=6,18=5,40=1/2;
 3/5=44,7=202,11=2,25=1,30=1,70=2201,72=1,74=-55,124=31/1,2,3;
 4//1;
 5/5=2,38=5,53=1/2;
 6/7=2,8=2,9=2,10=2,28=1/1;
 99/5=1,9=1/99;
 Leave Link    1 at Thu Oct  9 11:00:35 2025, MaxMem= 30870077440 cpu:               4.9 elap:               0.1
 (Enter /work/home/accqbws0vm/apprepo/gaussian/16-hy/scripts/../app/g16/l101.exe)
 ---------------------------------
 Energy calculation for M100035680
 ---------------------------------
 Symbolic Z-matrix:
 Charge =  0 Multiplicity = 1
 C                    -1.69583  -5.51271  -1.18004 
 C                    -1.63415  -4.84731   0.206 
 C                    -1.81175  -3.35249   0.17412 
 C                    -0.78273  -2.36283   0.18398 
 C                     0.65922  -2.48764   0.24546 
 C                     1.36517  -3.55313  -0.2062 
 C                     2.80806  -3.7826   -0.17277 
 C                     3.77167  -2.88886   0.394 
 O                     3.3492   -1.75386   0.93383 
 C                     5.1476   -3.25197   0.35831 
 C                     5.58831  -4.44261  -0.21462 
 C                     4.63706  -5.28467  -0.75836 
 C                     3.27591  -4.96935  -0.73925 
 N                     5.07025  -6.53339  -1.36621 
 O                     6.27714  -6.79642  -1.37159 
 O                     4.21101  -7.27645  -1.85109 
 N                     6.15526  -2.38666   0.92873 
 O                     7.33398  -2.72865   0.89151 
 O                     5.79589  -1.30644   1.44933 
 N                    -1.36077  -1.12549   0.20788 
 C                    -2.73835  -1.27306   0.20052 
 C                    -3.03428  -2.67861   0.18473 
 C                    -4.37436  -3.35101   0.21141 
 C                    -3.56497  -0.13309   0.18219 
 C                    -3.03098   1.16722   0.14636 
 C                    -3.6789    2.4539    0.05977 
 C                    -5.15945   2.70107   0.12041 
 C                    -2.6688    3.40163  -0.08185 
 C                    -2.6921    4.90673  -0.2611 
 C                    -4.02715   5.65099  -0.34548 
 C                    -1.41889   2.70032  -0.02702 
 C                    -0.14481   3.37734  -0.14699 
 C                     1.06517   2.95226   0.29428 
 C                     2.36593   3.60283   0.17449 
 C                     2.61596   4.84353  -0.49253 
 O                     1.59868   5.48323  -1.05121 
 C                     3.94832   5.34288  -0.53593 
 C                     5.01571   4.66473   0.04848 
 C                     4.74628   3.46703   0.68375 
 C                     3.4533    2.94227   0.74911 
 N                     5.8425    2.73317   1.29663 
 O                     5.58785   1.66061   1.85428 
 O                     6.97899   3.21239   1.2331 
 N                     4.24721   6.59092  -1.20086 
 O                     3.31218   7.21985  -1.74717 
 O                     5.40329   7.00398  -1.21655 
 N                    -1.64841   1.36354   0.11845 
 B                    -0.59958   0.21828   0.1801 
 F                     0.16032   0.31665   1.36759 
 F                     0.25188   0.27373  -0.92468 
 C                    -5.04266  -0.33769   0.15472 
 C                    -5.75552  -0.65979   1.30969 
 F                    -5.11157  -0.78841   2.48082 
 C                    -7.12829  -0.87634   1.29211 
 F                    -7.78094  -1.18916   2.41888 
 C                    -7.82335  -0.7731    0.09197 
 F                    -9.14327  -0.9789    0.06224 
 C                    -7.14036  -0.45592  -1.07729 
 F                    -7.80745  -0.34895  -2.2337 
 C                    -5.76747  -0.24342  -1.03376 
 F                    -5.14167   0.07767  -2.17705 
 H                    -2.6633   -5.3308   -1.65903 
 H                    -0.91948  -5.12598  -1.84843 
 H                    -1.55912  -6.59563  -1.09317 
 H                    -2.4142   -5.28305   0.8394 
 H                    -0.68374  -5.09192   0.68988 
 H                     1.1764   -1.64422   0.67868 
 H                     0.83076  -4.36279  -0.69067 
 H                     4.14469  -1.26197   1.26602 
 H                     6.64026  -4.68881  -0.22803 
 H                     2.56814  -5.66335  -1.17534 
 H                    -5.04386  -2.97092  -0.56495 
 H                    -4.2641   -4.42535   0.05466 
 H                    -4.87603  -3.21009   1.17495 
 H                    -5.64102   2.50623  -0.84469 
 H                    -5.64392   2.06592   0.86346 
 H                    -5.37189   3.73208   0.38839 
 H                    -2.10074   5.35527   0.54738 
 H                    -2.13163   5.13129  -1.17851 
 H                    -4.6694    5.26471  -1.14201 
 H                    -4.58335   5.61944   0.59544 
 H                    -3.82607   6.70417  -0.56655 
 H                    -0.21936   4.34998  -0.61194 
 H                     1.11908   2.01562   0.83319 
 H                     1.95704   6.30818  -1.47112 
 H                     6.01649   5.06917  -0.00147 
 H                     3.29144   1.99764   1.25321 
 
 ITRead=  0  0  0  0  0  0  0  0  0  0  0  0  0  0  0  0  0  0  0  0
 ITRead=  0  0  0  0  0  0  0  0  0  0  0  0  0  0  0  0  0  0  0  0
 ITRead=  0  0  0  0  0  0  0  0  0  0  0  0  0  0  0  0  0  0  0  0
 ITRead=  0  0  0  0  0  0  0  0  0  0  0  0  0  0  0  0  0  0  0  0
 ITRead=  0  0  0  0  0  0  0
 MicOpt= -1 -1 -1 -1 -1 -1 -1 -1 -1 -1 -1 -1 -1 -1 -1 -1 -1 -1 -1 -1
 MicOpt= -1 -1 -1 -1 -1 -1 -1 -1 -1 -1 -1 -1 -1 -1 -1 -1 -1 -1 -1 -1
 MicOpt= -1 -1 -1 -1 -1 -1 -1 -1 -1 -1 -1 -1 -1 -1 -1 -1 -1 -1 -1 -1
 MicOpt= -1 -1 -1 -1 -1 -1 -1 -1 -1 -1 -1 -1 -1 -1 -1 -1 -1 -1 -1 -1
 MicOpt= -1 -1 -1 -1 -1 -1 -1
 NAtoms=     87 NQM=       87 NQMF=       0 NMMI=      0 NMMIF=      0
                NMic=       0 NMicF=      0.
                    Isotopes and Nuclear Properties:
 (Nuclear quadrupole moments (NQMom) in fm**2, nuclear magnetic moments (NMagM)
  in nuclear magnetons)

  Atom         1           2           3           4           5           6           7           8           9          10
 IAtWgt=          12          12          12          12          12          12          12          12          16          12
 AtmWgt=  12.0000000  12.0000000  12.0000000  12.0000000  12.0000000  12.0000000  12.0000000  12.0000000  15.9949146  12.0000000
 NucSpn=           0           0           0           0           0           0           0           0           0           0
 AtZEff=  -0.0000000  -0.0000000  -0.0000000  -0.0000000  -0.0000000  -0.0000000  -0.0000000  -0.0000000  -0.0000000  -0.0000000
 NQMom=    0.0000000   0.0000000   0.0000000   0.0000000   0.0000000   0.0000000   0.0000000   0.0000000   0.0000000   0.0000000
 NMagM=    0.0000000   0.0000000   0.0000000   0.0000000   0.0000000   0.0000000   0.0000000   0.0000000   0.0000000   0.0000000
 AtZNuc=   6.0000000   6.0000000   6.0000000   6.0000000   6.0000000   6.0000000   6.0000000   6.0000000   8.0000000   6.0000000

  Atom        11          12          13          14          15          16          17          18          19          20
 IAtWgt=          12          12          12          14          16          16          14          16          16          14
 AtmWgt=  12.0000000  12.0000000  12.0000000  14.0030740  15.9949146  15.9949146  14.0030740  15.9949146  15.9949146  14.0030740
 NucSpn=           0           0           0           2           0           0           2           0           0           2
 AtZEff=  -0.0000000  -0.0000000  -0.0000000  -0.0000000  -0.0000000  -0.0000000  -0.0000000  -0.0000000  -0.0000000  -0.0000000
 NQMom=    0.0000000   0.0000000   0.0000000   2.0440000   0.0000000   0.0000000   2.0440000   0.0000000   0.0000000   2.0440000
 NMagM=    0.0000000   0.0000000   0.0000000   0.4037610   0.0000000   0.0000000   0.4037610   0.0000000   0.0000000   0.4037610
 AtZNuc=   6.0000000   6.0000000   6.0000000   7.0000000   8.0000000   8.0000000   7.0000000   8.0000000   8.0000000   7.0000000

  Atom        21          22          23          24          25          26          27          28          29          30
 IAtWgt=          12          12          12          12          12          12          12          12          12          12
 AtmWgt=  12.0000000  12.0000000  12.0000000  12.0000000  12.0000000  12.0000000  12.0000000  12.0000000  12.0000000  12.0000000
 NucSpn=           0           0           0           0           0           0           0           0           0           0
 AtZEff=  -0.0000000  -0.0000000  -0.0000000  -0.0000000  -0.0000000  -0.0000000  -0.0000000  -0.0000000  -0.0000000  -0.0000000
 NQMom=    0.0000000   0.0000000   0.0000000   0.0000000   0.0000000   0.0000000   0.0000000   0.0000000   0.0000000   0.0000000
 NMagM=    0.0000000   0.0000000   0.0000000   0.0000000   0.0000000   0.0000000   0.0000000   0.0000000   0.0000000   0.0000000
 AtZNuc=   6.0000000   6.0000000   6.0000000   6.0000000   6.0000000   6.0000000   6.0000000   6.0000000   6.0000000   6.0000000

  Atom        31          32          33          34          35          36          37          38          39          40
 IAtWgt=          12          12          12          12          12          16          12          12          12          12
 AtmWgt=  12.0000000  12.0000000  12.0000000  12.0000000  12.0000000  15.9949146  12.0000000  12.0000000  12.0000000  12.0000000
 NucSpn=           0           0           0           0           0           0           0           0           0           0
 AtZEff=  -0.0000000  -0.0000000  -0.0000000  -0.0000000  -0.0000000  -0.0000000  -0.0000000  -0.0000000  -0.0000000  -0.0000000
 NQMom=    0.0000000   0.0000000   0.0000000   0.0000000   0.0000000   0.0000000   0.0000000   0.0000000   0.0000000   0.0000000
 NMagM=    0.0000000   0.0000000   0.0000000   0.0000000   0.0000000   0.0000000   0.0000000   0.0000000   0.0000000   0.0000000
 AtZNuc=   6.0000000   6.0000000   6.0000000   6.0000000   6.0000000   8.0000000   6.0000000   6.0000000   6.0000000   6.0000000

  Atom        41          42          43          44          45          46          47          48          49          50
 IAtWgt=          14          16          16          14          16          16          14          11          19          19
 AtmWgt=  14.0030740  15.9949146  15.9949146  14.0030740  15.9949146  15.9949146  14.0030740  11.0093053  18.9984032  18.9984032
 NucSpn=           2           0           0           2           0           0           2           3           1           1
 AtZEff=  -0.0000000  -0.0000000  -0.0000000  -0.0000000  -0.0000000  -0.0000000  -0.0000000  -0.0000000  -0.0000000  -0.0000000
 NQMom=    2.0440000   0.0000000   0.0000000   2.0440000   0.0000000   0.0000000   2.0440000   4.0590000   0.0000000   0.0000000
 NMagM=    0.4037610   0.0000000   0.0000000   0.4037610   0.0000000   0.0000000   0.4037610   2.6886370   2.6288670   2.6288670
 AtZNuc=   7.0000000   8.0000000   8.0000000   7.0000000   8.0000000   8.0000000   7.0000000   5.0000000   9.0000000   9.0000000

  Atom        51          52          53          54          55          56          57          58          59          60
 IAtWgt=          12          12          19          12          19          12          19          12          19          12
 AtmWgt=  12.0000000  12.0000000  18.9984032  12.0000000  18.9984032  12.0000000  18.9984032  12.0000000  18.9984032  12.0000000
 NucSpn=           0           0           1           0           1           0           1           0           1           0
 AtZEff=  -0.0000000  -0.0000000  -0.0000000  -0.0000000  -0.0000000  -0.0000000  -0.0000000  -0.0000000  -0.0000000  -0.0000000
 NQMom=    0.0000000   0.0000000   0.0000000   0.0000000   0.0000000   0.0000000   0.0000000   0.0000000   0.0000000   0.0000000
 NMagM=    0.0000000   0.0000000   2.6288670   0.0000000   2.6288670   0.0000000   2.6288670   0.0000000   2.6288670   0.0000000
 AtZNuc=   6.0000000   6.0000000   9.0000000   6.0000000   9.0000000   6.0000000   9.0000000   6.0000000   9.0000000   6.0000000

  Atom        61          62          63          64          65          66          67          68          69          70
 IAtWgt=          19           1           1           1           1           1           1           1           1           1
 AtmWgt=  18.9984032   1.0078250   1.0078250   1.0078250   1.0078250   1.0078250   1.0078250   1.0078250   1.0078250   1.0078250
 NucSpn=           1           1           1           1           1           1           1           1           1           1
 AtZEff=  -0.0000000  -0.0000000  -0.0000000  -0.0000000  -0.0000000  -0.0000000  -0.0000000  -0.0000000  -0.0000000  -0.0000000
 NQMom=    0.0000000   0.0000000   0.0000000   0.0000000   0.0000000   0.0000000   0.0000000   0.0000000   0.0000000   0.0000000
 NMagM=    2.6288670   2.7928460   2.7928460   2.7928460   2.7928460   2.7928460   2.7928460   2.7928460   2.7928460   2.7928460
 AtZNuc=   9.0000000   1.0000000   1.0000000   1.0000000   1.0000000   1.0000000   1.0000000   1.0000000   1.0000000   1.0000000

  Atom        71          72          73          74          75          76          77          78          79          80
 IAtWgt=           1           1           1           1           1           1           1           1           1           1
 AtmWgt=   1.0078250   1.0078250   1.0078250   1.0078250   1.0078250   1.0078250   1.0078250   1.0078250   1.0078250   1.0078250
 NucSpn=           1           1           1           1           1           1           1           1           1           1
 AtZEff=  -0.0000000  -0.0000000  -0.0000000  -0.0000000  -0.0000000  -0.0000000  -0.0000000  -0.0000000  -0.0000000  -0.0000000
 NQMom=    0.0000000   0.0000000   0.0000000   0.0000000   0.0000000   0.0000000   0.0000000   0.0000000   0.0000000   0.0000000
 NMagM=    2.7928460   2.7928460   2.7928460   2.7928460   2.7928460   2.7928460   2.7928460   2.7928460   2.7928460   2.7928460
 AtZNuc=   1.0000000   1.0000000   1.0000000   1.0000000   1.0000000   1.0000000   1.0000000   1.0000000   1.0000000   1.0000000

  Atom        81          82          83          84          85          86          87
 IAtWgt=           1           1           1           1           1           1           1
 AtmWgt=   1.0078250   1.0078250   1.0078250   1.0078250   1.0078250   1.0078250   1.0078250
 NucSpn=           1           1           1           1           1           1           1
 AtZEff=  -0.0000000  -0.0000000  -0.0000000  -0.0000000  -0.0000000  -0.0000000  -0.0000000
 NQMom=    0.0000000   0.0000000   0.0000000   0.0000000   0.0000000   0.0000000   0.0000000
 NMagM=    2.7928460   2.7928460   2.7928460   2.7928460   2.7928460   2.7928460   2.7928460
 AtZNuc=   1.0000000   1.0000000   1.0000000   1.0000000   1.0000000   1.0000000   1.0000000
 Leave Link  101 at Thu Oct  9 11:00:35 2025, MaxMem= 30870077440 cpu:               9.6 elap:               0.2
 (Enter /work/home/accqbws0vm/apprepo/gaussian/16-hy/scripts/../app/g16/l202.exe)
 Stoichiometry    C37H26BF7N6O10
 Framework group  C1[X(C37H26BF7N6O10)]
 Deg. of freedom   255
 Full point group                 C1      NOp   1
 Largest Abelian subgroup         C1      NOp   1
 Largest concise Abelian subgroup C1      NOp   1
                         Standard orientation:                         
 ---------------------------------------------------------------------
 Center     Atomic      Atomic             Coordinates (Angstroms)
 Number     Number       Type             X           Y           Z
 ---------------------------------------------------------------------
      1          6           0       -1.695829   -5.512714   -1.180044
      2          6           0       -1.634153   -4.847308    0.206003
      3          6           0       -1.811752   -3.352487    0.174122
      4          6           0       -0.782733   -2.362834    0.183979
      5          6           0        0.659218   -2.487639    0.245460
      6          6           0        1.365167   -3.553125   -0.206200
      7          6           0        2.808056   -3.782603   -0.172774
      8          6           0        3.771671   -2.888860    0.393997
      9          8           0        3.349199   -1.753860    0.933829
     10          6           0        5.147604   -3.251965    0.358313
     11          6           0        5.588309   -4.442612   -0.214622
     12          6           0        4.637064   -5.284665   -0.758362
     13          6           0        3.275910   -4.969347   -0.739245
     14          7           0        5.070253   -6.533392   -1.366205
     15          8           0        6.277141   -6.796419   -1.371585
     16          8           0        4.211011   -7.276446   -1.851085
     17          7           0        6.155256   -2.386658    0.928730
     18          8           0        7.333980   -2.728649    0.891508
     19          8           0        5.795894   -1.306444    1.449332
     20          7           0       -1.360769   -1.125491    0.207876
     21          6           0       -2.738350   -1.273061    0.200522
     22          6           0       -3.034280   -2.678607    0.184726
     23          6           0       -4.374359   -3.351007    0.211413
     24          6           0       -3.564973   -0.133086    0.182186
     25          6           0       -3.030978    1.167219    0.146355
     26          6           0       -3.678902    2.453900    0.059767
     27          6           0       -5.159447    2.701065    0.120413
     28          6           0       -2.668796    3.401633   -0.081847
     29          6           0       -2.692100    4.906729   -0.261097
     30          6           0       -4.027153    5.650985   -0.345483
     31          6           0       -1.418892    2.700324   -0.027017
     32          6           0       -0.144811    3.377338   -0.146990
     33          6           0        1.065173    2.952264    0.294280
     34          6           0        2.365932    3.602832    0.174491
     35          6           0        2.615963    4.843528   -0.492533
     36          8           0        1.598677    5.483232   -1.051207
     37          6           0        3.948321    5.342881   -0.535931
     38          6           0        5.015713    4.664725    0.048480
     39          6           0        4.746282    3.467026    0.683754
     40          6           0        3.453298    2.942269    0.749114
     41          7           0        5.842498    2.733172    1.296631
     42          8           0        5.587854    1.660608    1.854280
     43          8           0        6.978990    3.212389    1.233100
     44          7           0        4.247207    6.590921   -1.200860
     45          8           0        3.312183    7.219854   -1.747166
     46          8           0        5.403291    7.003977   -1.216551
     47          7           0       -1.648413    1.363544    0.118450
     48          5           0       -0.599584    0.218283    0.180097
     49          9           0        0.160315    0.316653    1.367588
     50          9           0        0.251881    0.273734   -0.924678
     51          6           0       -5.042658   -0.337685    0.154724
     52          6           0       -5.755516   -0.659785    1.309687
     53          9           0       -5.111569   -0.788410    2.480815
     54          6           0       -7.128287   -0.876335    1.292107
     55          9           0       -7.780939   -1.189158    2.418875
     56          6           0       -7.823347   -0.773103    0.091967
     57          9           0       -9.143272   -0.978896    0.062241
     58          6           0       -7.140364   -0.455916   -1.077292
     59          9           0       -7.807451   -0.348948   -2.233704
     60          6           0       -5.767467   -0.243415   -1.033762
     61          9           0       -5.141670    0.077674   -2.177047
     62          1           0       -2.663303   -5.330804   -1.659031
     63          1           0       -0.919483   -5.125984   -1.848430
     64          1           0       -1.559117   -6.595628   -1.093173
     65          1           0       -2.414197   -5.283050    0.839399
     66          1           0       -0.683738   -5.091917    0.689876
     67          1           0        1.176399   -1.644220    0.678675
     68          1           0        0.830756   -4.362790   -0.690672
     69          1           0        4.144686   -1.261974    1.266016
     70          1           0        6.640258   -4.688815   -0.228025
     71          1           0        2.568143   -5.663352   -1.175337
     72          1           0       -5.043863   -2.970922   -0.564953
     73          1           0       -4.264097   -4.425349    0.054664
     74          1           0       -4.876032   -3.210095    1.174954
     75          1           0       -5.641015    2.506232   -0.844685
     76          1           0       -5.643920    2.065920    0.863458
     77          1           0       -5.371888    3.732077    0.388390
     78          1           0       -2.100744    5.355275    0.547375
     79          1           0       -2.131626    5.131285   -1.178509
     80          1           0       -4.669395    5.264705   -1.142007
     81          1           0       -4.583346    5.619438    0.595443
     82          1           0       -3.826073    6.704165   -0.566553
     83          1           0       -0.219360    4.349975   -0.611937
     84          1           0        1.119081    2.015618    0.833186
     85          1           0        1.957043    6.308183   -1.471124
     86          1           0        6.016494    5.069167   -0.001466
     87          1           0        3.291441    1.997636    1.253211
 ---------------------------------------------------------------------
 Rotational constants (GHZ):           0.0408726           0.0257857           0.0168851
 Leave Link  202 at Thu Oct  9 11:00:35 2025, MaxMem= 30870077440 cpu:               4.9 elap:               0.1
 (Enter /work/home/accqbws0vm/apprepo/gaussian/16-hy/scripts/../app/g16/l301.exe)
 Standard basis: def2TZVPP (5D, 7F)
 Ernie: Thresh=  0.10000D-02 Tol=  0.10000D-05 Strict=F.
 There are  2586 symmetry adapted cartesian basis functions of A   symmetry.
 There are  2255 symmetry adapted basis functions of A   symmetry.
  2255 basis functions,  3553 primitive gaussians,  2586 cartesian basis functions
   219 alpha electrons      219 beta electrons
       nuclear repulsion energy      8865.5324424537 Hartrees.
 IExCor= 4336 DFT=T Ex+Corr=M062X ExCW=0 ScaHFX=  0.540000
 ScaDFX=  1.000000  1.000000  1.000000  1.000000 ScalE2=  1.000000  1.000000
 IRadAn=      5 IRanWt=     -1 IRanGd=            0 ICorTp=0 IEmpDi=131
 NAtoms=   87 NActive=   87 NUniq=   87 SFac= 1.00D+00 NAtFMM=   60 NAOKFM=T Big=T
 Integral buffers will be    131072 words long.
 Raffenetti 2 integral format.
 Two-electron integral symmetry is turned on.
 R6Disp:  Grimme-D3 Dispersion energy=       -0.0093512730 Hartrees.
 Nuclear repulsion after empirical dispersion term =     8865.5230911807 Hartrees.
 ------------------------------------------------------------------------------
 Polarizable Continuum Model (PCM)
 =================================
 Model                : PCM.
 Atomic radii         : UFF (Universal Force Field).
 Polarization charges : Total charges.
 Charge compensation  : None.
 Solution method      : On-the-fly selection.
 Cavity type          : Scaled VdW (van der Waals Surface) (Alpha=1.100).
 Cavity algorithm     : GePol (No added spheres)
                        Default sphere list used, NSphG=   87.
                        Lebedev-Laikov grids with approx.  5.0 points / Ang**2.
                        Smoothing algorithm: York/Karplus (Gamma=1.0000).
                        Polarization charges: spherical gaussians, with
                                              point-specific exponents (IZeta= 3).
                        Self-potential: point-specific (ISelfS= 7).
                        Self-field    : sphere-specific E.n sum rule (ISelfD= 2).
 Solvent              : Water, Eps=  78.355300 Eps(inf)=   1.777849
 ------------------------------------------------------------------------------
 GePol: Number of generator spheres                  =      87
 GePol: Total number of spheres                      =      87
 GePol: Number of exposed spheres                    =      87 (100.00%)
 GePol: Number of points                             =    6476
 GePol: Average weight of points                     =       0.12
 GePol: Minimum weight of points                     =   0.17D-11
 GePol: Maximum weight of points                     =    0.20577
 GePol: Number of points with low weight             =     382
 GePol: Fraction of low-weight points (<1% of avg)   =       5.90%
 GePol: Cavity surface area                          =    802.694 Ang**2
 GePol: Cavity volume                                =    961.274 Ang**3
 Leave Link  301 at Thu Oct  9 11:00:35 2025, MaxMem= 30870077440 cpu:               6.0 elap:               0.1
 (Enter /work/home/accqbws0vm/apprepo/gaussian/16-hy/scripts/../app/g16/l302.exe)
 NPDir=0 NMtPBC=     1 NCelOv=     1 NCel=       1 NClECP=     1 NCelD=      1
         NCelK=      1 NCelE2=     1 NClLst=     1 CellRange=     0.0.
 One-electron integrals computed using PRISM.
 One-electron integral symmetry used in STVInt
   1 Symmetry operations used in ECPInt.
 ECPInt:  NShTT=  342378 NPrTT= 1021726 LenC2=  204339 LenP2D=  392466.
 LDataN:  DoStor=T MaxTD1= 6 Len=  172
 NBasis=  2255 RedAO= T EigKep=  3.37D-06  NBF=  2255
 NBsUse=  2255 1.00D-06 EigRej= -1.00D+00 NBFU=  2255
 Precomputing XC quadrature grid using
 IXCGrd= 4 IRadAn=           5 IRanWt=          -1 IRanGd=           0 AccXCQ= 0.00D+00.
 Generated NRdTot=       0 NPtTot=           0 NUsed=           0 NTot=          32
 NSgBfM=  2310  2304  2307  2310  2310 MxSgAt=    87 MxSgA2=    87.
 Leave Link  302 at Thu Oct  9 11:00:52 2025, MaxMem= 30870077440 cpu:            1036.3 elap:              16.3
 (Enter /work/home/accqbws0vm/apprepo/gaussian/16-hy/scripts/../app/g16/l303.exe)
 DipDrv:  MaxL=1.
 Leave Link  303 at Thu Oct  9 11:00:53 2025, MaxMem= 30870077440 cpu:              47.9 elap:               0.9
 (Enter /work/home/accqbws0vm/apprepo/gaussian/16-hy/scripts/../app/g16/l401.exe)
 ExpMin= 6.06D-02 ExpMax= 3.55D+04 ExpMxC= 1.21D+03 IAcc=3 IRadAn=         5 AccDes= 0.00D+00
 Harris functional with IExCor= 1009 and IRadAn=       5 diagonalized for initial guess.
 HarFok:  IExCor= 1009 AccDes= 0.00D+00 IRadAn=         5 IDoV= 1 UseB2=F ITyADJ=14
 ICtDFT=  3500011 ScaDFX=  1.000000  1.000000  1.000000  1.000000
 FoFCou: FMM=F IPFlag=           0 FMFlag=      100000 FMFlg1=        2001
         NFxFlg=           0 DoJE=T BraDBF=F KetDBF=T FulRan=T
         wScrn=  0.000000 ICntrl=       500 IOpCl=  0 I1Cent=   200000004 NGrid=           0
         NMat0=    1 NMatS0=      1 NMatT0=    0 NMatD0=    1 NMtDS0=    0 NMtDT0=    0
 Petite list used in FoFCou.
 Harris En= -3228.24704756355    
 JPrj=0 DoOrth=F DoCkMO=F.
 Leave Link  401 at Thu Oct  9 11:01:08 2025, MaxMem= 30870077440 cpu:             949.9 elap:              15.0
 (Enter /work/home/accqbws0vm/apprepo/gaussian/16-hy/scripts/../app/g16/l502.exe)
 Integral symmetry usage will be decided dynamically.
 Closed shell SCF:
 Using DIIS extrapolation, IDIIS=  1040.
 NGot= 30870077440 LenX= 30856515677 LenY= 30849825695
 Requested convergence on RMS density matrix=1.00D-08 within 128 cycles.
 Requested convergence on MAX density matrix=1.00D-06.
 Requested convergence on             energy=1.00D-06.
 No special actions if energy rises.
 Fock matrices will be formed incrementally for  20 cycles.

 Cycle   1  Pass 1  IDiag  1:
 FoFJK:  IHMeth= 1 ICntrl=       0 DoSepK=F KAlg= 0 I1Cent=           0 FoldK=F
 IRaf= 550000000 NMat=       1 IRICut=       1 DoRegI=T DoRafI=F ISym2E= 0 IDoP0=0 IntGTp=1.
 FoFCou: FMM=T IPFlag=           0 FMFlag=      100000 FMFlg1=        2001
         NFxFlg=           0 DoJE=F BraDBF=F KetDBF=F FulRan=T
         wScrn=  0.000000 ICntrl=         0 IOpCl=  0 I1Cent=           0 NGrid=           0
         NMat0=    1 NMatS0=      1 NMatT0=    0 NMatD0=    1 NMtDS0=    0 NMtDT0=    0
 Symmetry not used in FoFCou.
 FMM levels:  10  Number of levels for PrismC:   9
 Inv3:  Mode=1 IEnd=   125815728.
 Iteration    1 A*A^-1 deviation from unit magnitude is 3.55D-15 for   4692.
 Iteration    1 A*A^-1 deviation from orthogonality  is 3.20D-15 for   4336    975.
 Iteration    1 A^-1*A deviation from unit magnitude is 4.22D-15 for   4692.
 Iteration    1 A^-1*A deviation from orthogonality  is 4.60D-15 for   6331   6271.
 E= -3228.56130442161    
 DIIS: error= 1.86D-02 at cycle   1 NSaved=   1.
 NSaved= 1 IEnMin= 1 EnMin= -3228.56130442161     IErMin= 1 ErrMin= 1.86D-02
 ErrMax= 1.86D-02  0.00D+00 EMaxC= 1.00D-01 BMatC= 2.12D+00 BMatP= 2.12D+00
 IDIUse=3 WtCom= 8.14D-01 WtEn= 1.86D-01
 Coeff-Com:  0.100D+01
 Coeff-En:   0.100D+01
 Coeff:      0.100D+01
 Gap=     0.132 Goal=   None    Shift=    0.000
 GapD=    0.132 DampG=1.000 DampE=0.500 DampFc=0.5000 IDamp=-1.
 Damping current iteration by 5.00D-01
 RMSDP=1.47D-03 MaxDP=3.70D-01              OVMax= 2.60D-01

 Cycle   2  Pass 1  IDiag  1:
 RMSU=  7.34D-04    CP:  1.00D+00
 E= -3229.17988045438     Delta-E=       -0.618576032764 Rises=F Damp=T
 DIIS: error= 6.87D-03 at cycle   2 NSaved=   2.
 NSaved= 2 IEnMin= 2 EnMin= -3229.17988045438     IErMin= 2 ErrMin= 6.87D-03
 ErrMax= 6.87D-03  0.00D+00 EMaxC= 1.00D-01 BMatC= 2.30D-01 BMatP= 2.12D+00
 IDIUse=3 WtCom= 9.31D-01 WtEn= 6.87D-02
 Coeff-Com:  0.239D-01 0.976D+00
 Coeff-En:   0.804D-01 0.920D+00
 Coeff:      0.278D-01 0.972D+00
 Gap=     0.154 Goal=   None    Shift=    0.000
 RMSDP=6.60D-04 MaxDP=1.46D-01 DE=-6.19D-01 OVMax= 1.91D-01

 Cycle   3  Pass 1  IDiag  1:
 RMSU=  5.78D-04    CP:  9.97D-01  1.43D+00
 E= -3229.89269033104     Delta-E=       -0.712809876661 Rises=F Damp=F
 DIIS: error= 5.32D-03 at cycle   3 NSaved=   3.
 NSaved= 3 IEnMin= 3 EnMin= -3229.89269033104     IErMin= 3 ErrMin= 5.32D-03
 ErrMax= 5.32D-03  0.00D+00 EMaxC= 1.00D-01 BMatC= 9.81D-02 BMatP= 2.30D-01
 IDIUse=3 WtCom= 9.47D-01 WtEn= 5.32D-02
 Coeff-Com: -0.875D-01 0.397D+00 0.691D+00
 Coeff-En:   0.000D+00 0.000D+00 0.100D+01
 Coeff:     -0.828D-01 0.376D+00 0.707D+00
 Gap=     0.133 Goal=   None    Shift=    0.000
 RMSDP=1.66D-04 MaxDP=2.49D-02 DE=-7.13D-01 OVMax= 4.86D-02

 Cycle   4  Pass 1  IDiag  1:
 RMSU=  1.64D-04    CP:  9.96D-01  1.43D+00  9.57D-01
 E= -3229.95322991940     Delta-E=       -0.060539588359 Rises=F Damp=F
 DIIS: error= 1.24D-03 at cycle   4 NSaved=   4.
 NSaved= 4 IEnMin= 4 EnMin= -3229.95322991940     IErMin= 4 ErrMin= 1.24D-03
 ErrMax= 1.24D-03  0.00D+00 EMaxC= 1.00D-01 BMatC= 1.43D-02 BMatP= 9.81D-02
 IDIUse=3 WtCom= 9.88D-01 WtEn= 1.24D-02
 Coeff-Com: -0.343D-01 0.891D-01 0.338D+00 0.608D+00
 Coeff-En:   0.000D+00 0.000D+00 0.810D-01 0.919D+00
 Coeff:     -0.339D-01 0.880D-01 0.334D+00 0.611D+00
 Gap=     0.134 Goal=   None    Shift=    0.000
 RMSDP=6.41D-05 MaxDP=1.01D-02 DE=-6.05D-02 OVMax= 1.80D-02

 Cycle   5  Pass 1  IDiag  1:
 RMSU=  4.86D-05    CP:  9.95D-01  1.43D+00  9.84D-01  7.64D-01
 E= -3229.96364569678     Delta-E=       -0.010415777379 Rises=F Damp=F
 DIIS: error= 5.60D-04 at cycle   5 NSaved=   5.
 NSaved= 5 IEnMin= 5 EnMin= -3229.96364569678     IErMin= 5 ErrMin= 5.60D-04
 ErrMax= 5.60D-04  0.00D+00 EMaxC= 1.00D-01 BMatC= 9.90D-04 BMatP= 1.43D-02
 IDIUse=3 WtCom= 9.94D-01 WtEn= 5.60D-03
 Coeff-Com: -0.121D-01 0.230D-01 0.133D+00 0.310D+00 0.547D+00
 Coeff-En:   0.000D+00 0.000D+00 0.000D+00 0.000D+00 0.100D+01
 Coeff:     -0.121D-01 0.229D-01 0.132D+00 0.308D+00 0.549D+00
 Gap=     0.134 Goal=   None    Shift=    0.000
 RMSDP=2.01D-05 MaxDP=3.05D-03 DE=-1.04D-02 OVMax= 7.00D-03

 Cycle   6  Pass 1  IDiag  1:
 RMSU=  1.73D-05    CP:  9.96D-01  1.44D+00  9.83D-01  7.80D-01  8.23D-01
 E= -3229.96433317792     Delta-E=       -0.000687481148 Rises=F Damp=F
 DIIS: error= 2.10D-04 at cycle   6 NSaved=   6.
 NSaved= 6 IEnMin= 6 EnMin= -3229.96433317792     IErMin= 6 ErrMin= 2.10D-04
 ErrMax= 2.10D-04  0.00D+00 EMaxC= 1.00D-01 BMatC= 1.27D-04 BMatP= 9.90D-04
 IDIUse=3 WtCom= 9.98D-01 WtEn= 2.10D-03
 Coeff-Com: -0.302D-02 0.344D-02 0.368D-01 0.101D+00 0.300D+00 0.561D+00
 Coeff-En:   0.000D+00 0.000D+00 0.000D+00 0.000D+00 0.653D-02 0.993D+00
 Coeff:     -0.302D-02 0.343D-02 0.368D-01 0.101D+00 0.300D+00 0.562D+00
 Gap=     0.135 Goal=   None    Shift=    0.000
 RMSDP=6.82D-06 MaxDP=9.54D-04 DE=-6.87D-04 OVMax= 3.10D-03

 Cycle   7  Pass 1  IDiag  1:
 RMSU=  5.97D-06    CP:  9.96D-01  1.44D+00  9.86D-01  7.77D-01  8.80D-01
                    CP:  9.50D-01
 E= -3229.96442744041     Delta-E=       -0.000094262481 Rises=F Damp=F
 DIIS: error= 4.67D-05 at cycle   7 NSaved=   7.
 NSaved= 7 IEnMin= 7 EnMin= -3229.96442744041     IErMin= 7 ErrMin= 4.67D-05
 ErrMax= 4.67D-05  0.00D+00 EMaxC= 1.00D-01 BMatC= 1.06D-05 BMatP= 1.27D-04
 IDIUse=1 WtCom= 1.00D+00 WtEn= 0.00D+00
 Coeff-Com:  0.922D-03-0.274D-02-0.870D-02-0.148D-01 0.277D-01 0.231D+00
 Coeff-Com:  0.766D+00
 Coeff:      0.922D-03-0.274D-02-0.870D-02-0.148D-01 0.277D-01 0.231D+00
 Coeff:      0.766D+00
 Gap=     0.135 Goal=   None    Shift=    0.000
 RMSDP=3.81D-06 MaxDP=8.29D-04 DE=-9.43D-05 OVMax= 1.48D-03

 Cycle   8  Pass 1  IDiag  1:
 RMSU=  2.94D-06    CP:  9.96D-01  1.44D+00  9.87D-01  7.82D-01  9.04D-01
                    CP:  1.05D+00  1.10D+00
 E= -3229.96443996841     Delta-E=       -0.000012528009 Rises=F Damp=F
 DIIS: error= 1.59D-05 at cycle   8 NSaved=   8.
 NSaved= 8 IEnMin= 8 EnMin= -3229.96443996841     IErMin= 8 ErrMin= 1.59D-05
 ErrMax= 1.59D-05  0.00D+00 EMaxC= 1.00D-01 BMatC= 1.51D-06 BMatP= 1.06D-05
 IDIUse=1 WtCom= 1.00D+00 WtEn= 0.00D+00
 Coeff-Com:  0.743D-03-0.156D-02-0.794D-02-0.187D-01-0.256D-01 0.212D-01
 Coeff-Com:  0.322D+00 0.709D+00
 Coeff:      0.743D-03-0.156D-02-0.794D-02-0.187D-01-0.256D-01 0.212D-01
 Coeff:      0.322D+00 0.709D+00
 Gap=     0.135 Goal=   None    Shift=    0.000
 RMSDP=1.43D-06 MaxDP=2.41D-04 DE=-1.25D-05 OVMax= 5.65D-04

 Cycle   9  Pass 1  IDiag  1:
 RMSU=  9.66D-07    CP:  9.96D-01  1.44D+00  9.87D-01  7.84D-01  9.15D-01
                    CP:  1.08D+00  1.19D+00  1.05D+00
 E= -3229.96444209138     Delta-E=       -0.000002122961 Rises=F Damp=F
 DIIS: error= 6.39D-06 at cycle   9 NSaved=   9.
 NSaved= 9 IEnMin= 9 EnMin= -3229.96444209138     IErMin= 9 ErrMin= 6.39D-06
 ErrMax= 6.39D-06  0.00D+00 EMaxC= 1.00D-01 BMatC= 1.80D-07 BMatP= 1.51D-06
 IDIUse=1 WtCom= 1.00D+00 WtEn= 0.00D+00
 Coeff-Com:  0.168D-03-0.257D-03-0.178D-02-0.536D-02-0.129D-01-0.203D-01
 Coeff-Com:  0.319D-01 0.272D+00 0.736D+00
 Coeff:      0.168D-03-0.257D-03-0.178D-02-0.536D-02-0.129D-01-0.203D-01
 Coeff:      0.319D-01 0.272D+00 0.736D+00
 Gap=     0.135 Goal=   None    Shift=    0.000
 RMSDP=5.45D-07 MaxDP=1.05D-04 DE=-2.12D-06 OVMax= 3.41D-04

 Cycle  10  Pass 1  IDiag  1:
 RMSU=  4.26D-07    CP:  9.96D-01  1.44D+00  9.87D-01  7.84D-01  9.17D-01
                    CP:  1.08D+00  1.22D+00  1.12D+00  1.11D+00
 E= -3229.96444241465     Delta-E=       -0.000000323271 Rises=F Damp=F
 DIIS: error= 2.45D-06 at cycle  10 NSaved=  10.
 NSaved=10 IEnMin=10 EnMin= -3229.96444241465     IErMin=10 ErrMin= 2.45D-06
 ErrMax= 2.45D-06  0.00D+00 EMaxC= 1.00D-01 BMatC= 3.12D-08 BMatP= 1.80D-07
 IDIUse=1 WtCom= 1.00D+00 WtEn= 0.00D+00
 Coeff-Com: -0.253D-04 0.950D-04 0.342D-03 0.279D-03-0.176D-02-0.110D-01
 Coeff-Com: -0.298D-01 0.457D-02 0.292D+00 0.745D+00
 Coeff:     -0.253D-04 0.950D-04 0.342D-03 0.279D-03-0.176D-02-0.110D-01
 Coeff:     -0.298D-01 0.457D-02 0.292D+00 0.745D+00
 Gap=     0.135 Goal=   None    Shift=    0.000
 RMSDP=3.14D-07 MaxDP=1.15D-04 DE=-3.23D-07 OVMax= 1.75D-04

 Cycle  11  Pass 1  IDiag  1:
 RMSU=  2.01D-07    CP:  9.96D-01  1.44D+00  9.87D-01  7.84D-01  9.18D-01
                    CP:  1.09D+00  1.24D+00  1.17D+00  1.22D+00  9.38D-01
 E= -3229.96444247534     Delta-E=       -0.000000060696 Rises=F Damp=F
 DIIS: error= 9.86D-07 at cycle  11 NSaved=  11.
 NSaved=11 IEnMin=11 EnMin= -3229.96444247534     IErMin=11 ErrMin= 9.86D-07
 ErrMax= 9.86D-07  0.00D+00 EMaxC= 1.00D-01 BMatC= 7.72D-09 BMatP= 3.12D-08
 IDIUse=1 WtCom= 1.00D+00 WtEn= 0.00D+00
 Coeff-Com: -0.439D-04 0.926D-04 0.506D-03 0.119D-02 0.174D-02-0.141D-02
 Coeff-Com: -0.209D-01-0.539D-01-0.396D-02 0.370D+00 0.706D+00
 Coeff:     -0.439D-04 0.926D-04 0.506D-03 0.119D-02 0.174D-02-0.141D-02
 Coeff:     -0.209D-01-0.539D-01-0.396D-02 0.370D+00 0.706D+00
 Gap=     0.135 Goal=   None    Shift=    0.000
 RMSDP=1.23D-07 MaxDP=2.79D-05 DE=-6.07D-08 OVMax= 7.73D-05

 Cycle  12  Pass 1  IDiag  1:
 RMSU=  6.50D-08    CP:  9.96D-01  1.44D+00  9.87D-01  7.84D-01  9.18D-01
                    CP:  1.09D+00  1.24D+00  1.18D+00  1.28D+00  1.12D+00
                    CP:  1.01D+00
 E= -3229.96444248996     Delta-E=       -0.000000014617 Rises=F Damp=F
 DIIS: error= 4.87D-07 at cycle  12 NSaved=  12.
 NSaved=12 IEnMin=12 EnMin= -3229.96444248996     IErMin=12 ErrMin= 4.87D-07
 ErrMax= 4.87D-07  0.00D+00 EMaxC= 1.00D-01 BMatC= 1.22D-09 BMatP= 7.72D-09
 IDIUse=1 WtCom= 1.00D+00 WtEn= 0.00D+00
 Coeff-Com: -0.176D-04 0.316D-04 0.189D-03 0.528D-03 0.108D-02 0.778D-03
 Coeff-Com: -0.585D-02-0.261D-01-0.433D-01 0.687D-01 0.331D+00 0.673D+00
 Coeff:     -0.176D-04 0.316D-04 0.189D-03 0.528D-03 0.108D-02 0.778D-03
 Coeff:     -0.585D-02-0.261D-01-0.433D-01 0.687D-01 0.331D+00 0.673D+00
 Gap=     0.135 Goal=   None    Shift=    0.000
 RMSDP=5.42D-08 MaxDP=9.99D-06 DE=-1.46D-08 OVMax= 3.53D-05

 Cycle  13  Pass 1  IDiag  1:
 RMSU=  3.18D-08    CP:  9.96D-01  1.44D+00  9.87D-01  7.84D-01  9.18D-01
                    CP:  1.09D+00  1.24D+00  1.18D+00  1.30D+00  1.14D+00
                    CP:  1.16D+00  1.17D+00
 E= -3229.96444249243     Delta-E=       -0.000000002467 Rises=F Damp=F
 DIIS: error= 2.12D-07 at cycle  13 NSaved=  13.
 NSaved=13 IEnMin=13 EnMin= -3229.96444249243     IErMin=13 ErrMin= 2.12D-07
 ErrMax= 2.12D-07  0.00D+00 EMaxC= 1.00D-01 BMatC= 2.07D-10 BMatP= 1.22D-09
 IDIUse=1 WtCom= 1.00D+00 WtEn= 0.00D+00
 Coeff-Com:  0.169D-05-0.580D-05-0.300D-04-0.280D-04 0.110D-03 0.604D-03
 Coeff-Com:  0.198D-02 0.945D-03-0.170D-01-0.505D-01-0.143D-01 0.284D+00
 Coeff-Com:  0.794D+00
 Coeff:      0.169D-05-0.580D-05-0.300D-04-0.280D-04 0.110D-03 0.604D-03
 Coeff:      0.198D-02 0.945D-03-0.170D-01-0.505D-01-0.143D-01 0.284D+00
 Coeff:      0.794D+00
 Gap=     0.135 Goal=   None    Shift=    0.000
 RMSDP=2.87D-08 MaxDP=4.20D-06 DE=-2.47D-09 OVMax= 2.42D-05

 Cycle  14  Pass 1  IDiag  1:
 RMSU=  1.50D-08    CP:  9.96D-01  1.44D+00  9.87D-01  7.84D-01  9.18D-01
                    CP:  1.09D+00  1.24D+00  1.18D+00  1.30D+00  1.16D+00
                    CP:  1.21D+00  1.44D+00  1.17D+00
 E= -3229.96444249294     Delta-E=       -0.000000000511 Rises=F Damp=F
 DIIS: error= 9.24D-08 at cycle  14 NSaved=  14.
 NSaved=14 IEnMin=14 EnMin= -3229.96444249294     IErMin=14 ErrMin= 9.24D-08
 ErrMax= 9.24D-08  0.00D+00 EMaxC= 1.00D-01 BMatC= 5.48D-11 BMatP= 2.07D-10
 IDIUse=1 WtCom= 1.00D+00 WtEn= 0.00D+00
 Coeff-Com:  0.359D-05-0.767D-05-0.460D-04-0.102D-03-0.127D-03 0.143D-03
 Coeff-Com:  0.193D-02 0.516D-02-0.910D-03-0.360D-01-0.677D-01 0.109D-01
 Coeff-Com:  0.381D+00 0.706D+00
 Coeff:      0.359D-05-0.767D-05-0.460D-04-0.102D-03-0.127D-03 0.143D-03
 Coeff:      0.193D-02 0.516D-02-0.910D-03-0.360D-01-0.677D-01 0.109D-01
 Coeff:      0.381D+00 0.706D+00
 Gap=     0.135 Goal=   None    Shift=    0.000
 RMSDP=1.45D-08 MaxDP=1.65D-06 DE=-5.11D-10 OVMax= 1.28D-05

 Cycle  15  Pass 1  IDiag  1:
 RMSU=  6.21D-09    CP:  9.96D-01  1.44D+00  9.87D-01  7.84D-01  9.18D-01
                    CP:  1.09D+00  1.24D+00  1.19D+00  1.30D+00  1.17D+00
                    CP:  1.24D+00  1.56D+00  1.39D+00  1.30D+00
 E= -3229.96444249298     Delta-E=       -0.000000000042 Rises=F Damp=F
 DIIS: error= 5.22D-08 at cycle  15 NSaved=  15.
 NSaved=15 IEnMin=15 EnMin= -3229.96444249298     IErMin=15 ErrMin= 5.22D-08
 ErrMax= 5.22D-08  0.00D+00 EMaxC= 1.00D-01 BMatC= 1.23D-11 BMatP= 5.48D-11
 IDIUse=1 WtCom= 1.00D+00 WtEn= 0.00D+00
 Coeff-Com:  0.110D-05-0.184D-05-0.124D-04-0.371D-04-0.833D-04-0.946D-04
 Coeff-Com:  0.341D-03 0.216D-02 0.387D-02-0.268D-02-0.283D-01-0.693D-01
 Coeff-Com: -0.399D-01 0.315D+00 0.819D+00
 Coeff:      0.110D-05-0.184D-05-0.124D-04-0.371D-04-0.833D-04-0.946D-04
 Coeff:      0.341D-03 0.216D-02 0.387D-02-0.268D-02-0.283D-01-0.693D-01
 Coeff:     -0.399D-01 0.315D+00 0.819D+00
 Gap=     0.135 Goal=   None    Shift=    0.000
 RMSDP=9.67D-09 MaxDP=1.35D-06 DE=-4.18D-11 OVMax= 8.92D-06

 Cycle  16  Pass 1  IDiag  1:
 RMSU=  3.52D-09    CP:  9.96D-01  1.44D+00  9.87D-01  7.84D-01  9.18D-01
                    CP:  1.09D+00  1.24D+00  1.19D+00  1.30D+00  1.17D+00
                    CP:  1.25D+00  1.64D+00  1.53D+00  1.62D+00  1.27D+00
 E= -3229.96444249332     Delta-E=       -0.000000000338 Rises=F Damp=F
 DIIS: error= 2.24D-08 at cycle  16 NSaved=  16.
 NSaved=16 IEnMin=16 EnMin= -3229.96444249332     IErMin=16 ErrMin= 2.24D-08
 ErrMax= 2.24D-08  0.00D+00 EMaxC= 1.00D-01 BMatC= 3.84D-12 BMatP= 1.23D-11
 IDIUse=1 WtCom= 1.00D+00 WtEn= 0.00D+00
 Coeff-Com: -0.356D-06 0.101D-05 0.554D-05 0.720D-05-0.125D-04-0.935D-04
 Coeff-Com: -0.357D-03-0.245D-03 0.231D-02 0.893D-02 0.392D-02-0.364D-01
 Coeff-Com: -0.126D+00-0.201D-01 0.436D+00 0.732D+00
 Coeff:     -0.356D-06 0.101D-05 0.554D-05 0.720D-05-0.125D-04-0.935D-04
 Coeff:     -0.357D-03-0.245D-03 0.231D-02 0.893D-02 0.392D-02-0.364D-01
 Coeff:     -0.126D+00-0.201D-01 0.436D+00 0.732D+00
 Gap=     0.135 Goal=   None    Shift=    0.000
 RMSDP=4.89D-09 MaxDP=1.03D-06 DE=-3.38D-10 OVMax= 4.42D-06

 Cycle  17  Pass 1  IDiag  1:
 RMSU=  1.51D-09    CP:  9.96D-01  1.44D+00  9.87D-01  7.84D-01  9.18D-01
                    CP:  1.09D+00  1.24D+00  1.19D+00  1.30D+00  1.17D+00
                    CP:  1.25D+00  1.67D+00  1.59D+00  1.80D+00  1.60D+00
                    CP:  1.23D+00
 E= -3229.96444249304     Delta-E=        0.000000000275 Rises=F Damp=F
 DIIS: error= 1.20D-08 at cycle  17 NSaved=  17.
 NSaved=17 IEnMin=16 EnMin= -3229.96444249332     IErMin=17 ErrMin= 1.20D-08
 ErrMax= 1.20D-08  0.00D+00 EMaxC= 1.00D-01 BMatC= 7.50D-13 BMatP= 3.84D-12
 IDIUse=1 WtCom= 1.00D+00 WtEn= 0.00D+00
 Coeff-Com: -0.404D-06 0.879D-06 0.550D-05 0.118D-04 0.117D-04-0.230D-04
 Coeff-Com: -0.248D-03-0.626D-03 0.174D-03 0.498D-02 0.849D-02-0.178D-03
 Coeff-Com: -0.571D-01-0.852D-01 0.234D-01 0.348D+00 0.759D+00
 Coeff:     -0.404D-06 0.879D-06 0.550D-05 0.118D-04 0.117D-04-0.230D-04
 Coeff:     -0.248D-03-0.626D-03 0.174D-03 0.498D-02 0.849D-02-0.178D-03
 Coeff:     -0.571D-01-0.852D-01 0.234D-01 0.348D+00 0.759D+00
 Gap=     0.135 Goal=   None    Shift=    0.000
 RMSDP=2.31D-09 MaxDP=3.43D-07 DE= 2.75D-10 OVMax= 2.16D-06

 Error on total polarization charges =  0.01911
 SCF Done:  E(RM062X) =  -3229.96444249     A.U. after   17 cycles
            NFock= 17  Conv=0.23D-08     -V/T= 2.0049
 KE= 3.214080949058D+03 PE=-2.529609983981D+04 EE= 9.986531357079D+03
 Leave Link  502 at Thu Oct  9 11:31:49 2025, MaxMem= 30870077440 cpu:          115635.0 elap:            1840.2
 (Enter /work/home/accqbws0vm/apprepo/gaussian/16-hy/scripts/../app/g16/l601.exe)
 Copying SCF densities to generalized density rwf, IOpCl= 0 IROHF=0.

 **********************************************************************

            Population analysis using the SCF density.

 **********************************************************************

 Orbital symmetries:
       Occupied  (A) (A) (A) (A) (A) (A) (A) (A) (A) (A) (A) (A)
                 (A) (A) (A) (A) (A) (A) (A) (A) (A) (A) (A) (A)
                 (A) (A) (A) (A) (A) (A) (A) (A) (A) (A) (A) (A)
                 (A) (A) (A) (A) (A) (A) (A) (A) (A) (A) (A) (A)
                 (A) (A) (A) (A) (A) (A) (A) (A) (A) (A) (A) (A)
                 (A) (A) (A) (A) (A) (A) (A) (A) (A) (A) (A) (A)
                 (A) (A) (A) (A) (A) (A) (A) (A) (A) (A) (A) (A)
                 (A) (A) (A) (A) (A) (A) (A) (A) (A) (A) (A) (A)
                 (A) (A) (A) (A) (A) (A) (A) (A) (A) (A) (A) (A)
                 (A) (A) (A) (A) (A) (A) (A) (A) (A) (A) (A) (A)
                 (A) (A) (A) (A) (A) (A) (A) (A) (A) (A) (A) (A)
                 (A) (A) (A) (A) (A) (A) (A) (A) (A) (A) (A) (A)
                 (A) (A) (A) (A) (A) (A) (A) (A) (A) (A) (A) (A)
                 (A) (A) (A) (A) (A) (A) (A) (A) (A) (A) (A) (A)
                 (A) (A) (A) (A) (A) (A) (A) (A) (A) (A) (A) (A)
                 (A) (A) (A) (A) (A) (A) (A) (A) (A) (A) (A) (A)
                 (A) (A) (A) (A) (A) (A) (A) (A) (A) (A) (A) (A)
                 (A) (A) (A) (A) (A) (A) (A) (A) (A) (A) (A) (A)
                 (A) (A) (A)
       Virtual   (A) (A) (A) (A) (A) (A) (A) (A) (A) (A) (A) (A)
                 (A) (A) (A) (A) (A) (A) (A) (A) (A) (A) (A) (A)
                 (A) (A) (A) (A) (A) (A) (A) (A) (A) (A) (A) (A)
                 (A) (A) (A) (A) (A) (A) (A) (A) (A) (A) (A) (A)
                 (A) (A) (A) (A) (A) (A) (A) (A) (A) (A) (A) (A)
                 (A) (A) (A) (A) (A) (A) (A) (A) (A) (A) (A) (A)
                 (A) (A) (A) (A) (A) (A) (A) (A) (A) (A) (A) (A)
                 (A) (A) (A) (A) (A) (A) (A) (A) (A) (A) (A) (A)
                 (A) (A) (A) (A) (A) (A) (A) (A) (A) (A) (A) (A)
                 (A) (A) (A) (A) (A) (A) (A) (A) (A) (A) (A) (A)
                 (A) (A) (A) (A) (A) (A) (A) (A) (A) (A) (A) (A)
                 (A) (A) (A) (A) (A) (A) (A) (A) (A) (A) (A) (A)
                 (A) (A) (A) (A) (A) (A) (A) (A) (A) (A) (A) (A)
                 (A) (A) (A) (A) (A) (A) (A) (A) (A) (A) (A) (A)
                 (A) (A) (A) (A) (A) (A) (A) (A) (A) (A) (A) (A)
                 (A) (A) (A) (A) (A) (A) (A) (A) (A) (A) (A) (A)
                 (A) (A) (A) (A) (A) (A) (A) (A) (A) (A) (A) (A)
                 (A) (A) (A) (A) (A) (A) (A) (A) (A) (A) (A) (A)
                 (A) (A) (A) (A) (A) (A) (A) (A) (A) (A) (A) (A)
                 (A) (A) (A) (A) (A) (A) (A) (A) (A) (A) (A) (A)
                 (A) (A) (A) (A) (A) (A) (A) (A) (A) (A) (A) (A)
                 (A) (A) (A) (A) (A) (A) (A) (A) (A) (A) (A) (A)
                 (A) (A) (A) (A) (A) (A) (A) (A) (A) (A) (A) (A)
                 (A) (A) (A) (A) (A) (A) (A) (A) (A) (A) (A) (A)
                 (A) (A) (A) (A) (A) (A) (A) (A) (A) (A) (A) (A)
                 (A) (A) (A) (A) (A) (A) (A) (A) (A) (A) (A) (A)
                 (A) (A) (A) (A) (A) (A) (A) (A) (A) (A) (A) (A)
                 (A) (A) (A) (A) (A) (A) (A) (A) (A) (A) (A) (A)
                 (A) (A) (A) (A) (A) (A) (A) (A) (A) (A) (A) (A)
                 (A) (A) (A) (A) (A) (A) (A) (A) (A) (A) (A) (A)
                 (A) (A) (A) (A) (A) (A) (A) (A) (A) (A) (A) (A)
                 (A) (A) (A) (A) (A) (A) (A) (A) (A) (A) (A) (A)
                 (A) (A) (A) (A) (A) (A) (A) (A) (A) (A) (A) (A)
                 (A) (A) (A) (A) (A) (A) (A) (A) (A) (A) (A) (A)
                 (A) (A) (A) (A) (A) (A) (A) (A) (A) (A) (A) (A)
                 (A) (A) (A) (A) (A) (A) (A) (A) (A) (A) (A) (A)
                 (A) (A) (A) (A) (A) (A) (A) (A) (A) (A) (A) (A)
                 (A) (A) (A) (A) (A) (A) (A) (A) (A) (A) (A) (A)
                 (A) (A) (A) (A) (A) (A) (A) (A) (A) (A) (A) (A)
                 (A) (A) (A) (A) (A) (A) (A) (A) (A) (A) (A) (A)
                 (A) (A) (A) (A) (A) (A) (A) (A) (A) (A) (A) (A)
                 (A) (A) (A) (A) (A) (A) (A) (A) (A) (A) (A) (A)
                 (A) (A) (A) (A) (A) (A) (A) (A) (A) (A) (A) (A)
                 (A) (A) (A) (A) (A) (A) (A) (A) (A) (A) (A) (A)
                 (A) (A) (A) (A) (A) (A) (A) (A) (A) (A) (A) (A)
                 (A) (A) (A) (A) (A) (A) (A) (A) (A) (A) (A) (A)
                 (A) (A) (A) (A) (A) (A) (A) (A) (A) (A) (A) (A)
                 (A) (A) (A) (A) (A) (A) (A) (A) (A) (A) (A) (A)
                 (A) (A) (A) (A) (A) (A) (A) (A) (A) (A) (A) (A)
                 (A) (A) (A) (A) (A) (A) (A) (A) (A) (A) (A) (A)
                 (A) (A) (A) (A) (A) (A) (A) (A) (A) (A) (A) (A)
                 (A) (A) (A) (A) (A) (A) (A) (A) (A) (A) (A) (A)
                 (A) (A) (A) (A) (A) (A) (A) (A) (A) (A) (A) (A)
                 (A) (A) (A) (A) (A) (A) (A) (A) (A) (A) (A) (A)
                 (A) (A) (A) (A) (A) (A) (A) (A) (A) (A) (A) (A)
                 (A) (A) (A) (A) (A) (A) (A) (A) (A) (A) (A) (A)
                 (A) (A) (A) (A) (A) (A) (A) (A) (A) (A) (A) (A)
                 (A) (A) (A) (A) (A) (A) (A) (A) (A) (A) (A) (A)
                 (A) (A) (A) (A) (A) (A) (A) (A) (A) (A) (A) (A)
                 (A) (A) (A) (A) (A) (A) (A) (A) (A) (A) (A) (A)
                 (A) (A) (A) (A) (A) (A) (A) (A) (A) (A) (A) (A)
                 (A) (A) (A) (A) (A) (A) (A) (A) (A) (A) (A) (A)
                 (A) (A) (A) (A) (A) (A) (A) (A) (A) (A) (A) (A)
                 (A) (A) (A) (A) (A) (A) (A) (A) (A) (A) (A) (A)
                 (A) (A) (A) (A) (A) (A) (A) (A) (A) (A) (A) (A)
                 (A) (A) (A) (A) (A) (A) (A) (A) (A) (A) (A) (A)
                 (A) (A) (A) (A) (A) (A) (A) (A) (A) (A) (A) (A)
                 (A) (A) (A) (A) (A) (A) (A) (A) (A) (A) (A) (A)
                 (A) (A) (A) (A) (A) (A) (A) (A) (A) (A) (A) (A)
                 (A) (A) (A) (A) (A) (A) (A) (A) (A) (A) (A) (A)
                 (A) (A) (A) (A) (A) (A) (A) (A) (A) (A) (A) (A)
                 (A) (A) (A) (A) (A) (A) (A) (A) (A) (A) (A) (A)
                 (A) (A) (A) (A) (A) (A) (A) (A) (A) (A) (A) (A)
                 (A) (A) (A) (A) (A) (A) (A) (A) (A) (A) (A) (A)
                 (A) (A) (A) (A) (A) (A) (A) (A) (A) (A) (A) (A)
                 (A) (A) (A) (A) (A) (A) (A) (A) (A) (A) (A) (A)
                 (A) (A) (A) (A) (A) (A) (A) (A) (A) (A) (A) (A)
                 (A) (A) (A) (A) (A) (A) (A) (A) (A) (A) (A) (A)
                 (A) (A) (A) (A) (A) (A) (A) (A) (A) (A) (A) (A)
                 (A) (A) (A) (A) (A) (A) (A) (A) (A) (A) (A) (A)
                 (A) (A) (A) (A) (A) (A) (A) (A) (A) (A) (A) (A)
                 (A) (A) (A) (A) (A) (A) (A) (A) (A) (A) (A) (A)
                 (A) (A) (A) (A) (A) (A) (A) (A) (A) (A) (A) (A)
                 (A) (A) (A) (A) (A) (A) (A) (A) (A) (A) (A) (A)
                 (A) (A) (A) (A) (A) (A) (A) (A) (A) (A) (A) (A)
                 (A) (A) (A) (A) (A) (A) (A) (A) (A) (A) (A) (A)
                 (A) (A) (A) (A) (A) (A) (A) (A) (A) (A) (A) (A)
                 (A) (A) (A) (A) (A) (A) (A) (A) (A) (A) (A) (A)
                 (A) (A) (A) (A) (A) (A) (A) (A) (A) (A) (A) (A)
                 (A) (A) (A) (A) (A) (A) (A) (A) (A) (A) (A) (A)
                 (A) (A) (A) (A) (A) (A) (A) (A) (A) (A) (A) (A)
                 (A) (A) (A) (A) (A) (A) (A) (A) (A) (A) (A) (A)
                 (A) (A) (A) (A) (A) (A) (A) (A) (A) (A) (A) (A)
                 (A) (A) (A) (A) (A) (A) (A) (A) (A) (A) (A) (A)
                 (A) (A) (A) (A) (A) (A) (A) (A) (A) (A) (A) (A)
                 (A) (A) (A) (A) (A) (A) (A) (A) (A) (A) (A) (A)
                 (A) (A) (A) (A) (A) (A) (A) (A) (A) (A) (A) (A)
                 (A) (A) (A) (A) (A) (A) (A) (A) (A) (A) (A) (A)
                 (A) (A) (A) (A) (A) (A) (A) (A) (A) (A) (A) (A)
                 (A) (A) (A) (A) (A) (A) (A) (A) (A) (A) (A) (A)
                 (A) (A) (A) (A) (A) (A) (A) (A) (A) (A) (A) (A)
                 (A) (A) (A) (A) (A) (A) (A) (A) (A) (A) (A) (A)
                 (A) (A) (A) (A) (A) (A) (A) (A) (A) (A) (A) (A)
                 (A) (A) (A) (A) (A) (A) (A) (A) (A) (A) (A) (A)
                 (A) (A) (A) (A) (A) (A) (A) (A) (A) (A) (A) (A)
                 (A) (A) (A) (A) (A) (A) (A) (A) (A) (A) (A) (A)
                 (A) (A) (A) (A) (A) (A) (A) (A) (A) (A) (A) (A)
                 (A) (A) (A) (A) (A) (A) (A) (A) (A) (A) (A) (A)
                 (A) (A) (A) (A) (A) (A) (A) (A) (A) (A) (A) (A)
                 (A) (A) (A) (A) (A) (A) (A) (A) (A) (A) (A) (A)
                 (A) (A) (A) (A) (A) (A) (A) (A) (A) (A) (A) (A)
                 (A) (A) (A) (A) (A) (A) (A) (A) (A) (A) (A) (A)
                 (A) (A) (A) (A) (A) (A) (A) (A) (A) (A) (A) (A)
                 (A) (A) (A) (A) (A) (A) (A) (A) (A) (A) (A) (A)
                 (A) (A) (A) (A) (A) (A) (A) (A) (A) (A) (A) (A)
                 (A) (A) (A) (A) (A) (A) (A) (A) (A) (A) (A) (A)
                 (A) (A) (A) (A) (A) (A) (A) (A) (A) (A) (A) (A)
                 (A) (A) (A) (A) (A) (A) (A) (A) (A) (A) (A) (A)
                 (A) (A) (A) (A) (A) (A) (A) (A) (A) (A) (A) (A)
                 (A) (A) (A) (A) (A) (A) (A) (A) (A) (A) (A) (A)
                 (A) (A) (A) (A) (A) (A) (A) (A) (A) (A) (A) (A)
                 (A) (A) (A) (A) (A) (A) (A) (A) (A) (A) (A) (A)
                 (A) (A) (A) (A) (A) (A) (A) (A) (A) (A) (A) (A)
                 (A) (A) (A) (A) (A) (A) (A) (A) (A) (A) (A) (A)
                 (A) (A) (A) (A) (A) (A) (A) (A) (A) (A) (A) (A)
                 (A) (A) (A) (A) (A) (A) (A) (A) (A) (A) (A) (A)
                 (A) (A) (A) (A) (A) (A) (A) (A) (A) (A) (A) (A)
                 (A) (A) (A) (A) (A) (A) (A) (A) (A) (A) (A) (A)
                 (A) (A) (A) (A) (A) (A) (A) (A) (A) (A) (A) (A)
                 (A) (A) (A) (A) (A) (A) (A) (A) (A) (A) (A) (A)
                 (A) (A) (A) (A) (A) (A) (A) (A) (A) (A) (A) (A)
                 (A) (A) (A) (A) (A) (A) (A) (A) (A) (A) (A) (A)
                 (A) (A) (A) (A) (A) (A) (A) (A) (A) (A) (A) (A)
                 (A) (A) (A) (A) (A) (A) (A) (A) (A) (A) (A) (A)
                 (A) (A) (A) (A) (A) (A) (A) (A) (A) (A) (A) (A)
                 (A) (A) (A) (A) (A) (A) (A) (A) (A) (A) (A) (A)
                 (A) (A) (A) (A) (A) (A) (A) (A) (A) (A) (A) (A)
                 (A) (A) (A) (A) (A) (A) (A) (A) (A) (A) (A) (A)
                 (A) (A) (A) (A) (A) (A) (A) (A) (A) (A) (A) (A)
                 (A) (A) (A) (A) (A) (A) (A) (A) (A) (A) (A) (A)
                 (A) (A) (A) (A) (A) (A) (A) (A) (A) (A) (A) (A)
                 (A) (A) (A) (A) (A) (A) (A) (A) (A) (A) (A) (A)
                 (A) (A) (A) (A) (A) (A) (A) (A) (A) (A) (A) (A)
                 (A) (A) (A) (A) (A) (A) (A) (A) (A) (A) (A) (A)
                 (A) (A) (A) (A) (A) (A) (A) (A) (A) (A) (A) (A)
                 (A) (A) (A) (A) (A) (A) (A) (A) (A) (A) (A) (A)
                 (A) (A) (A) (A) (A) (A) (A) (A) (A) (A) (A) (A)
                 (A) (A) (A) (A) (A) (A) (A) (A) (A) (A) (A) (A)
                 (A) (A) (A) (A) (A) (A) (A) (A) (A) (A) (A) (A)
                 (A) (A) (A) (A) (A) (A) (A) (A) (A) (A) (A) (A)
                 (A) (A) (A) (A) (A) (A) (A) (A) (A) (A) (A) (A)
                 (A) (A) (A) (A) (A) (A) (A) (A) (A) (A) (A) (A)
                 (A) (A) (A) (A) (A) (A) (A) (A) (A) (A) (A) (A)
                 (A) (A) (A) (A) (A) (A) (A) (A) (A) (A) (A) (A)
                 (A) (A) (A) (A) (A) (A) (A) (A) (A) (A) (A) (A)
                 (A) (A) (A) (A) (A) (A) (A) (A) (A) (A) (A) (A)
                 (A) (A) (A) (A) (A) (A) (A) (A) (A) (A) (A) (A)
                 (A) (A) (A) (A) (A) (A) (A) (A) (A) (A) (A) (A)
                 (A) (A) (A) (A) (A) (A) (A) (A) (A) (A) (A) (A)
                 (A) (A) (A) (A) (A) (A) (A) (A) (A) (A) (A) (A)
                 (A) (A) (A) (A) (A) (A) (A) (A) (A) (A) (A) (A)
                 (A) (A) (A) (A) (A) (A) (A) (A) (A) (A) (A) (A)
                 (A) (A) (A) (A) (A) (A) (A) (A) (A) (A) (A) (A)
                 (A) (A) (A) (A) (A) (A) (A) (A) (A) (A) (A) (A)
                 (A) (A) (A) (A) (A) (A) (A) (A) (A) (A) (A) (A)
                 (A) (A) (A) (A) (A) (A) (A) (A) (A) (A) (A) (A)
                 (A) (A) (A) (A) (A) (A) (A) (A) (A) (A) (A) (A)
                 (A) (A) (A) (A) (A) (A) (A) (A) (A) (A) (A) (A)
                 (A) (A) (A) (A) (A) (A) (A) (A) (A) (A) (A) (A)
                 (A) (A) (A) (A) (A) (A) (A) (A)
 The electronic state is 1-A.
 Alpha  occ. eigenvalues --  -25.30231 -25.29841 -25.29833 -25.29694 -25.29681
 Alpha  occ. eigenvalues --  -25.20977 -25.20972 -19.70034 -19.69958 -19.69882
 Alpha  occ. eigenvalues --  -19.69797 -19.69350 -19.69289 -19.68397 -19.68343
 Alpha  occ. eigenvalues --  -19.68343 -19.68283 -15.03599 -15.03436 -15.02025
 Alpha  occ. eigenvalues --  -15.01958 -14.79532 -14.78939 -10.68198 -10.67912
 Alpha  occ. eigenvalues --  -10.67860 -10.67732 -10.67718 -10.67503 -10.67496
 Alpha  occ. eigenvalues --  -10.64054 -10.63980 -10.62905 -10.62887 -10.62004
 Alpha  occ. eigenvalues --  -10.61273 -10.60948 -10.60916 -10.60888 -10.60811
 Alpha  occ. eigenvalues --  -10.60252 -10.60113 -10.60093 -10.60013 -10.59962
 Alpha  occ. eigenvalues --  -10.59876 -10.57783 -10.57722 -10.57528 -10.57325
 Alpha  occ. eigenvalues --  -10.56843 -10.56797 -10.56143 -10.55764 -10.55127
 Alpha  occ. eigenvalues --  -10.54791 -10.54613 -10.54357 -10.53264 -10.53195
 Alpha  occ. eigenvalues --   -7.13865  -1.42578  -1.41841  -1.41322  -1.40461
 Alpha  occ. eigenvalues --   -1.40169  -1.38923  -1.38788  -1.37449  -1.37389
 Alpha  occ. eigenvalues --   -1.32936  -1.29736  -1.23917  -1.23800  -1.20062
 Alpha  occ. eigenvalues --   -1.19925  -1.18978  -1.18914  -1.11417  -1.09490
 Alpha  occ. eigenvalues --   -1.03254  -1.03206  -1.03072  -0.96499  -0.96367
 Alpha  occ. eigenvalues --   -0.95964  -0.94759  -0.94512  -0.93267  -0.92333
 Alpha  occ. eigenvalues --   -0.90294  -0.90207  -0.89905  -0.87193  -0.86418
 Alpha  occ. eigenvalues --   -0.86050  -0.84378  -0.84287  -0.82319  -0.81704
 Alpha  occ. eigenvalues --   -0.81675  -0.81639  -0.79945  -0.79263  -0.77737
 Alpha  occ. eigenvalues --   -0.76893  -0.75186  -0.74093  -0.73847  -0.73715
 Alpha  occ. eigenvalues --   -0.71841  -0.71699  -0.70407  -0.70326  -0.69497
 Alpha  occ. eigenvalues --   -0.68946  -0.68370  -0.67903  -0.67623  -0.66774
 Alpha  occ. eigenvalues --   -0.66403  -0.65879  -0.65414  -0.65353  -0.65290
 Alpha  occ. eigenvalues --   -0.64741  -0.64673  -0.64423  -0.64249  -0.64019
 Alpha  occ. eigenvalues --   -0.63946  -0.63882  -0.63799  -0.63640  -0.62611
 Alpha  occ. eigenvalues --   -0.62563  -0.62417  -0.62151  -0.61648  -0.61545
 Alpha  occ. eigenvalues --   -0.60618  -0.60461  -0.59927  -0.59765  -0.59010
 Alpha  occ. eigenvalues --   -0.58954  -0.58865  -0.58394  -0.57487  -0.56911
 Alpha  occ. eigenvalues --   -0.56555  -0.56174  -0.55643  -0.54667  -0.54559
 Alpha  occ. eigenvalues --   -0.54331  -0.54242  -0.54177  -0.53864  -0.53619
 Alpha  occ. eigenvalues --   -0.52900  -0.52173  -0.52050  -0.51653  -0.51347
 Alpha  occ. eigenvalues --   -0.51227  -0.50827  -0.50357  -0.50189  -0.49650
 Alpha  occ. eigenvalues --   -0.49427  -0.48986  -0.48744  -0.48646  -0.48506
 Alpha  occ. eigenvalues --   -0.48377  -0.48253  -0.47893  -0.47284  -0.46986
 Alpha  occ. eigenvalues --   -0.46654  -0.46400  -0.46351  -0.46076  -0.45167
 Alpha  occ. eigenvalues --   -0.44712  -0.44551  -0.44283  -0.43898  -0.43218
 Alpha  occ. eigenvalues --   -0.42416  -0.42231  -0.42149  -0.41987  -0.41875
 Alpha  occ. eigenvalues --   -0.41764  -0.41664  -0.41564  -0.41314  -0.41275
 Alpha  occ. eigenvalues --   -0.41118  -0.41052  -0.40509  -0.40213  -0.40131
 Alpha  occ. eigenvalues --   -0.40074  -0.40035  -0.39909  -0.39376  -0.37439
 Alpha  occ. eigenvalues --   -0.35049  -0.34409  -0.33760  -0.33206  -0.32482
 Alpha  occ. eigenvalues --   -0.31647  -0.30732  -0.30196  -0.24607
 Alpha virt. eigenvalues --   -0.11070  -0.09044  -0.08776  -0.07589  -0.07533
 Alpha virt. eigenvalues --   -0.03964  -0.02465  -0.01369  -0.00270   0.01409
 Alpha virt. eigenvalues --    0.02703   0.02892   0.04164   0.04764   0.05734
 Alpha virt. eigenvalues --    0.05937   0.06165   0.06992   0.07563   0.07741
 Alpha virt. eigenvalues --    0.08373   0.08670   0.09045   0.09266   0.09753
 Alpha virt. eigenvalues --    0.09916   0.10238   0.10694   0.10929   0.11106
 Alpha virt. eigenvalues --    0.11153   0.11437   0.11630   0.11997   0.12494
 Alpha virt. eigenvalues --    0.12808   0.12978   0.13399   0.13897   0.14260
 Alpha virt. eigenvalues --    0.14497   0.14635   0.14944   0.15102   0.15446
 Alpha virt. eigenvalues --    0.15750   0.16202   0.16272   0.16456   0.16696
 Alpha virt. eigenvalues --    0.17016   0.17212   0.17408   0.17504   0.17795
 Alpha virt. eigenvalues --    0.18027   0.18230   0.18446   0.18786   0.19055
 Alpha virt. eigenvalues --    0.19185   0.19482   0.19746   0.20101   0.20382
 Alpha virt. eigenvalues --    0.20456   0.20684   0.20916   0.21039   0.21275
 Alpha virt. eigenvalues --    0.21378   0.21797   0.21892   0.22541   0.22672
 Alpha virt. eigenvalues --    0.22828   0.23037   0.23118   0.23224   0.23551
 Alpha virt. eigenvalues --    0.23720   0.23948   0.24105   0.24361   0.24528
 Alpha virt. eigenvalues --    0.24698   0.25057   0.25178   0.25359   0.25510
 Alpha virt. eigenvalues --    0.26040   0.26084   0.26296   0.26520   0.26706
 Alpha virt. eigenvalues --    0.26808   0.27153   0.27269   0.27554   0.27804
 Alpha virt. eigenvalues --    0.27893   0.28302   0.28434   0.28575   0.28906
 Alpha virt. eigenvalues --    0.29084   0.29481   0.29562   0.29813   0.29947
 Alpha virt. eigenvalues --    0.29965   0.30404   0.30719   0.30910   0.31014
 Alpha virt. eigenvalues --    0.31052   0.31258   0.31311   0.31601   0.32000
 Alpha virt. eigenvalues --    0.32138   0.32370   0.32390   0.32587   0.32759
 Alpha virt. eigenvalues --    0.33095   0.33250   0.33652   0.33832   0.33986
 Alpha virt. eigenvalues --    0.34076   0.34314   0.34537   0.34581   0.34831
 Alpha virt. eigenvalues --    0.35012   0.35172   0.35406   0.35525   0.35732
 Alpha virt. eigenvalues --    0.35883   0.36021   0.36299   0.36421   0.36491
 Alpha virt. eigenvalues --    0.36815   0.37174   0.37430   0.37716   0.37765
 Alpha virt. eigenvalues --    0.38038   0.38175   0.38252   0.38438   0.38658
 Alpha virt. eigenvalues --    0.39028   0.39209   0.39533   0.39859   0.39909
 Alpha virt. eigenvalues --    0.40079   0.40317   0.40580   0.40852   0.40920
 Alpha virt. eigenvalues --    0.41103   0.41145   0.41584   0.41739   0.41807
 Alpha virt. eigenvalues --    0.42075   0.42193   0.42469   0.42507   0.42671
 Alpha virt. eigenvalues --    0.42843   0.43206   0.43320   0.43496   0.43588
 Alpha virt. eigenvalues --    0.43665   0.43885   0.44230   0.44247   0.44480
 Alpha virt. eigenvalues --    0.44775   0.44913   0.45101   0.45155   0.45360
 Alpha virt. eigenvalues --    0.45385   0.45524   0.45710   0.45812   0.46074
 Alpha virt. eigenvalues --    0.46344   0.46607   0.46763   0.46886   0.47061
 Alpha virt. eigenvalues --    0.47301   0.47359   0.47977   0.48092   0.48170
 Alpha virt. eigenvalues --    0.48437   0.48735   0.48902   0.48929   0.49126
 Alpha virt. eigenvalues --    0.49471   0.49620   0.49729   0.49948   0.50103
 Alpha virt. eigenvalues --    0.50216   0.50450   0.50713   0.50838   0.50903
 Alpha virt. eigenvalues --    0.51153   0.51526   0.51754   0.52034   0.52166
 Alpha virt. eigenvalues --    0.52450   0.52736   0.52908   0.53045   0.53288
 Alpha virt. eigenvalues --    0.53384   0.53606   0.53849   0.53928   0.54183
 Alpha virt. eigenvalues --    0.54289   0.54441   0.54928   0.55208   0.55329
 Alpha virt. eigenvalues --    0.55652   0.56190   0.56397   0.56694   0.56894
 Alpha virt. eigenvalues --    0.57154   0.57203   0.57426   0.57684   0.57976
 Alpha virt. eigenvalues --    0.58313   0.58435   0.58655   0.58795   0.59093
 Alpha virt. eigenvalues --    0.59288   0.59722   0.59842   0.60100   0.60454
 Alpha virt. eigenvalues --    0.60612   0.60743   0.61022   0.61043   0.61153
 Alpha virt. eigenvalues --    0.61463   0.61576   0.61721   0.61788   0.62000
 Alpha virt. eigenvalues --    0.62115   0.62454   0.62545   0.62837   0.62988
 Alpha virt. eigenvalues --    0.63268   0.63565   0.63750   0.64241   0.64351
 Alpha virt. eigenvalues --    0.64550   0.64595   0.64768   0.64927   0.65284
 Alpha virt. eigenvalues --    0.65444   0.65503   0.65774   0.65906   0.66267
 Alpha virt. eigenvalues --    0.66360   0.66509   0.66621   0.66863   0.67135
 Alpha virt. eigenvalues --    0.67345   0.67824   0.68042   0.68219   0.68492
 Alpha virt. eigenvalues --    0.68541   0.68774   0.68912   0.69201   0.69630
 Alpha virt. eigenvalues --    0.69651   0.69847   0.70016   0.70343   0.70618
 Alpha virt. eigenvalues --    0.70653   0.70905   0.71490   0.71715   0.71843
 Alpha virt. eigenvalues --    0.72113   0.72350   0.72415   0.72770   0.72821
 Alpha virt. eigenvalues --    0.73207   0.73372   0.73634   0.73813   0.74220
 Alpha virt. eigenvalues --    0.74410   0.74601   0.74784   0.74939   0.75206
 Alpha virt. eigenvalues --    0.75628   0.76013   0.76207   0.76497   0.76843
 Alpha virt. eigenvalues --    0.76953   0.77042   0.77446   0.77574   0.77891
 Alpha virt. eigenvalues --    0.78140   0.78192   0.78413   0.78582   0.78890
 Alpha virt. eigenvalues --    0.79008   0.79278   0.79690   0.79930   0.80124
 Alpha virt. eigenvalues --    0.80254   0.80849   0.81107   0.81337   0.81554
 Alpha virt. eigenvalues --    0.81839   0.81971   0.82328   0.82979   0.83035
 Alpha virt. eigenvalues --    0.83195   0.83388   0.83668   0.83895   0.84190
 Alpha virt. eigenvalues --    0.84497   0.84565   0.85013   0.85249   0.85473
 Alpha virt. eigenvalues --    0.85775   0.85866   0.85966   0.86790   0.86825
 Alpha virt. eigenvalues --    0.87226   0.87532   0.87719   0.88074   0.88107
 Alpha virt. eigenvalues --    0.88453   0.88553   0.88770   0.88933   0.89180
 Alpha virt. eigenvalues --    0.89236   0.89645   0.89984   0.90200   0.90297
 Alpha virt. eigenvalues --    0.90517   0.91133   0.91621   0.91837   0.92129
 Alpha virt. eigenvalues --    0.92508   0.92787   0.93065   0.93323   0.93875
 Alpha virt. eigenvalues --    0.94147   0.94402   0.94605   0.94885   0.95308
 Alpha virt. eigenvalues --    0.95783   0.95938   0.96051   0.96225   0.96478
 Alpha virt. eigenvalues --    0.96660   0.96882   0.96914   0.97108   0.97482
 Alpha virt. eigenvalues --    0.97736   0.98034   0.98212   0.98329   0.98995
 Alpha virt. eigenvalues --    0.99220   0.99643   0.99680   1.00121   1.00187
 Alpha virt. eigenvalues --    1.00686   1.00801   1.01264   1.01456   1.01644
 Alpha virt. eigenvalues --    1.01899   1.02182   1.02387   1.02647   1.02885
 Alpha virt. eigenvalues --    1.03226   1.03538   1.03779   1.04041   1.04198
 Alpha virt. eigenvalues --    1.04588   1.04798   1.04867   1.05173   1.05450
 Alpha virt. eigenvalues --    1.05664   1.06025   1.06383   1.06754   1.07083
 Alpha virt. eigenvalues --    1.07457   1.07613   1.07777   1.07956   1.08133
 Alpha virt. eigenvalues --    1.08393   1.08668   1.08724   1.09037   1.09071
 Alpha virt. eigenvalues --    1.09477   1.09752   1.10107   1.10171   1.10454
 Alpha virt. eigenvalues --    1.10697   1.10905   1.11139   1.11455   1.11760
 Alpha virt. eigenvalues --    1.11842   1.12056   1.12373   1.12891   1.13203
 Alpha virt. eigenvalues --    1.13510   1.13636   1.13891   1.14216   1.14413
 Alpha virt. eigenvalues --    1.14708   1.14843   1.15244   1.15343   1.15831
 Alpha virt. eigenvalues --    1.16143   1.16564   1.16582   1.16768   1.17263
 Alpha virt. eigenvalues --    1.17465   1.17794   1.17886   1.18352   1.18526
 Alpha virt. eigenvalues --    1.19038   1.19355   1.19644   1.20066   1.20198
 Alpha virt. eigenvalues --    1.20433   1.20993   1.21477   1.21584   1.21664
 Alpha virt. eigenvalues --    1.22005   1.22367   1.22755   1.23253   1.23426
 Alpha virt. eigenvalues --    1.23631   1.23910   1.24176   1.24269   1.25045
 Alpha virt. eigenvalues --    1.25328   1.25716   1.25874   1.26059   1.26357
 Alpha virt. eigenvalues --    1.26583   1.26901   1.27232   1.27282   1.27577
 Alpha virt. eigenvalues --    1.27804   1.28103   1.28949   1.29124   1.29154
 Alpha virt. eigenvalues --    1.29609   1.29886   1.30531   1.30740   1.30918
 Alpha virt. eigenvalues --    1.31124   1.31770   1.32035   1.32359   1.32500
 Alpha virt. eigenvalues --    1.32858   1.33367   1.33483   1.33784   1.34094
 Alpha virt. eigenvalues --    1.34162   1.34556   1.34934   1.35091   1.35372
 Alpha virt. eigenvalues --    1.35884   1.36188   1.36317   1.36785   1.36935
 Alpha virt. eigenvalues --    1.37071   1.37577   1.37961   1.38173   1.38348
 Alpha virt. eigenvalues --    1.38977   1.39353   1.39769   1.39813   1.40019
 Alpha virt. eigenvalues --    1.40158   1.40478   1.40959   1.41350   1.41438
 Alpha virt. eigenvalues --    1.42017   1.42318   1.42493   1.42777   1.43108
 Alpha virt. eigenvalues --    1.43268   1.43573   1.44016   1.44344   1.45082
 Alpha virt. eigenvalues --    1.45173   1.45756   1.45979   1.46403   1.46581
 Alpha virt. eigenvalues --    1.46904   1.47044   1.47345   1.47657   1.47947
 Alpha virt. eigenvalues --    1.47981   1.48611   1.48689   1.49052   1.49242
 Alpha virt. eigenvalues --    1.49821   1.50092   1.50275   1.50584   1.50631
 Alpha virt. eigenvalues --    1.50832   1.51093   1.51247   1.51328   1.51622
 Alpha virt. eigenvalues --    1.51718   1.51943   1.52167   1.52415   1.52476
 Alpha virt. eigenvalues --    1.52841   1.53500   1.53515   1.53645   1.54022
 Alpha virt. eigenvalues --    1.54364   1.54680   1.54741   1.54975   1.55184
 Alpha virt. eigenvalues --    1.55622   1.56102   1.56374   1.56748   1.57011
 Alpha virt. eigenvalues --    1.57502   1.57673   1.58146   1.58228   1.58387
 Alpha virt. eigenvalues --    1.58661   1.59143   1.59664   1.59728   1.60112
 Alpha virt. eigenvalues --    1.60382   1.60557   1.60862   1.61171   1.61280
 Alpha virt. eigenvalues --    1.61551   1.62309   1.62626   1.62768   1.63084
 Alpha virt. eigenvalues --    1.63767   1.64107   1.64192   1.64503   1.64636
 Alpha virt. eigenvalues --    1.65243   1.65503   1.65566   1.65745   1.66217
 Alpha virt. eigenvalues --    1.66600   1.66690   1.66810   1.67113   1.67375
 Alpha virt. eigenvalues --    1.67590   1.67958   1.68256   1.68359   1.68734
 Alpha virt. eigenvalues --    1.69075   1.69208   1.69510   1.69692   1.70186
 Alpha virt. eigenvalues --    1.70383   1.70562   1.70786   1.71186   1.71247
 Alpha virt. eigenvalues --    1.71845   1.72199   1.72366   1.72526   1.72968
 Alpha virt. eigenvalues --    1.73459   1.73622   1.74181   1.74464   1.74556
 Alpha virt. eigenvalues --    1.75010   1.75079   1.76195   1.76508   1.76684
 Alpha virt. eigenvalues --    1.76776   1.77074   1.77533   1.77818   1.78080
 Alpha virt. eigenvalues --    1.78622   1.79531   1.79793   1.80166   1.80740
 Alpha virt. eigenvalues --    1.81121   1.81560   1.82002   1.82533   1.82649
 Alpha virt. eigenvalues --    1.83422   1.83883   1.84419   1.84856   1.85165
 Alpha virt. eigenvalues --    1.85512   1.85618   1.86085   1.86415   1.86866
 Alpha virt. eigenvalues --    1.87048   1.87694   1.88148   1.88245   1.88742
 Alpha virt. eigenvalues --    1.89220   1.89237   1.89820   1.90161   1.90725
 Alpha virt. eigenvalues --    1.91060   1.91360   1.91653   1.91984   1.92065
 Alpha virt. eigenvalues --    1.92851   1.93350   1.93621   1.94224   1.94850
 Alpha virt. eigenvalues --    1.95105   1.95320   1.95423   1.95599   1.95916
 Alpha virt. eigenvalues --    1.96112   1.96559   1.96828   1.97463   1.97949
 Alpha virt. eigenvalues --    1.98376   1.98651   1.98947   1.99434   1.99763
 Alpha virt. eigenvalues --    1.99941   2.00153   2.00487   2.00904   2.01187
 Alpha virt. eigenvalues --    2.01327   2.01834   2.02420   2.02639   2.03037
 Alpha virt. eigenvalues --    2.03311   2.03424   2.03808   2.04161   2.04543
 Alpha virt. eigenvalues --    2.04942   2.05955   2.06161   2.06494   2.06668
 Alpha virt. eigenvalues --    2.06952   2.07064   2.07313   2.07335   2.07541
 Alpha virt. eigenvalues --    2.07884   2.08290   2.08907   2.09176   2.09520
 Alpha virt. eigenvalues --    2.09917   2.10271   2.11170   2.11394   2.11681
 Alpha virt. eigenvalues --    2.11783   2.12220   2.12728   2.13092   2.13373
 Alpha virt. eigenvalues --    2.13501   2.13981   2.14126   2.14625   2.14701
 Alpha virt. eigenvalues --    2.14935   2.15018   2.15133   2.15412   2.15956
 Alpha virt. eigenvalues --    2.16553   2.16718   2.17064   2.17184   2.17286
 Alpha virt. eigenvalues --    2.17568   2.18149   2.18662   2.18821   2.19638
 Alpha virt. eigenvalues --    2.19985   2.20193   2.20470   2.21042   2.21125
 Alpha virt. eigenvalues --    2.21751   2.22022   2.22222   2.22485   2.22744
 Alpha virt. eigenvalues --    2.23157   2.23601   2.23855   2.24015   2.24282
 Alpha virt. eigenvalues --    2.24394   2.24619   2.25335   2.25406   2.25763
 Alpha virt. eigenvalues --    2.25957   2.26808   2.27716   2.27910   2.28194
 Alpha virt. eigenvalues --    2.28774   2.29003   2.29245   2.29689   2.30215
 Alpha virt. eigenvalues --    2.30850   2.31212   2.31373   2.32135   2.32754
 Alpha virt. eigenvalues --    2.32848   2.33521   2.34161   2.34997   2.35392
 Alpha virt. eigenvalues --    2.35875   2.36638   2.37073   2.37283   2.37601
 Alpha virt. eigenvalues --    2.37755   2.38377   2.38875   2.39648   2.40421
 Alpha virt. eigenvalues --    2.40486   2.40903   2.41427   2.41748   2.42689
 Alpha virt. eigenvalues --    2.42984   2.43422   2.43945   2.44712   2.45161
 Alpha virt. eigenvalues --    2.45859   2.46242   2.46608   2.46979   2.47758
 Alpha virt. eigenvalues --    2.47905   2.48515   2.49495   2.49936   2.50454
 Alpha virt. eigenvalues --    2.50707   2.51147   2.51340   2.51535   2.52181
 Alpha virt. eigenvalues --    2.52669   2.53222   2.53797   2.53973   2.54863
 Alpha virt. eigenvalues --    2.54925   2.55443   2.55597   2.56083   2.56425
 Alpha virt. eigenvalues --    2.56955   2.57442   2.57681   2.57801   2.58140
 Alpha virt. eigenvalues --    2.58883   2.59205   2.59642   2.59741   2.59939
 Alpha virt. eigenvalues --    2.60131   2.60602   2.60847   2.61088   2.61215
 Alpha virt. eigenvalues --    2.61528   2.61641   2.61772   2.61882   2.62439
 Alpha virt. eigenvalues --    2.62835   2.63278   2.63911   2.64396   2.64678
 Alpha virt. eigenvalues --    2.65317   2.65732   2.66044   2.66215   2.66631
 Alpha virt. eigenvalues --    2.66850   2.67251   2.67736   2.67771   2.68045
 Alpha virt. eigenvalues --    2.68418   2.68695   2.69057   2.69352   2.69789
 Alpha virt. eigenvalues --    2.70050   2.70593   2.70851   2.71032   2.71434
 Alpha virt. eigenvalues --    2.71674   2.72329   2.72783   2.72977   2.73434
 Alpha virt. eigenvalues --    2.73554   2.73984   2.74310   2.74393   2.74851
 Alpha virt. eigenvalues --    2.74966   2.75358   2.75887   2.76067   2.76234
 Alpha virt. eigenvalues --    2.76385   2.76819   2.77102   2.77496   2.77616
 Alpha virt. eigenvalues --    2.78172   2.78257   2.78367   2.78584   2.79159
 Alpha virt. eigenvalues --    2.79607   2.80067   2.80157   2.80322   2.80667
 Alpha virt. eigenvalues --    2.80835   2.81081   2.81515   2.81736   2.81939
 Alpha virt. eigenvalues --    2.82167   2.82454   2.82928   2.83227   2.83370
 Alpha virt. eigenvalues --    2.83803   2.84218   2.84743   2.84904   2.85190
 Alpha virt. eigenvalues --    2.85486   2.85686   2.85758   2.86032   2.86487
 Alpha virt. eigenvalues --    2.86669   2.87229   2.87327   2.87488   2.87592
 Alpha virt. eigenvalues --    2.88031   2.88262   2.88319   2.88501   2.88650
 Alpha virt. eigenvalues --    2.88825   2.89101   2.89199   2.89506   2.89975
 Alpha virt. eigenvalues --    2.90183   2.90300   2.90354   2.90528   2.90698
 Alpha virt. eigenvalues --    2.91065   2.91223   2.91257   2.91845   2.91912
 Alpha virt. eigenvalues --    2.92036   2.92306   2.92664   2.92869   2.92998
 Alpha virt. eigenvalues --    2.93361   2.93454   2.93831   2.93993   2.94376
 Alpha virt. eigenvalues --    2.94956   2.95172   2.95311   2.95615   2.95748
 Alpha virt. eigenvalues --    2.95977   2.96241   2.96582   2.96605   2.96795
[...]
 Alpha virt. eigenvalues --    3.87185   3.88015   3.88352   3.88450   3.88832
 Alpha virt. eigenvalues --    3.88958   3.89251   3.89644   3.89672   3.89999
 Alpha virt. eigenvalues --    3.90233   3.90439   3.90849   3.90981   3.91457
 Alpha virt. eigenvalues --    3.91956   3.92353   3.92937   3.93203   3.93720
 Alpha virt. eigenvalues --    3.94123   3.94446   3.94603   3.94865   3.95107
 Alpha virt. eigenvalues --    3.95190   3.95538   3.95797   3.95973   3.96275
 Alpha virt. eigenvalues --    3.96872   3.97104   3.97521   3.97577   3.97829
 Alpha virt. eigenvalues --    3.98008   3.98377   3.98649   3.99134   3.99465
 Alpha virt. eigenvalues --    4.00037   4.00205   4.00804   4.00913   4.01293
 Alpha virt. eigenvalues --    4.01469   4.01695   4.02520   4.02723   4.02823
 Alpha virt. eigenvalues --    4.03359   4.03569   4.03747   4.04124   4.04223
 Alpha virt. eigenvalues --    4.04829   4.05078   4.05505   4.05734   4.05840
 Alpha virt. eigenvalues --    4.06099   4.06212   4.06462   4.06654   4.07107
 Alpha virt. eigenvalues --    4.07183   4.07561   4.07653   4.08087   4.08269
 Alpha virt. eigenvalues --    4.08352   4.08722   4.08956   4.09384   4.09533
 Alpha virt. eigenvalues --    4.09790   4.10132   4.10583   4.10739   4.10949
 Alpha virt. eigenvalues --    4.11072   4.11255   4.11543   4.12391   4.12652
 Alpha virt. eigenvalues --    4.12931   4.13277   4.13681   4.13933   4.14123
 Alpha virt. eigenvalues --    4.14277   4.14529   4.14696   4.15089   4.15112
 Alpha virt. eigenvalues --    4.15391   4.16101   4.16300   4.16626   4.16814
 Alpha virt. eigenvalues --    4.17075   4.17306   4.17511   4.18014   4.18224
 Alpha virt. eigenvalues --    4.18349   4.18741   4.18823   4.19083   4.19321
 Alpha virt. eigenvalues --    4.19822   4.20127   4.20372   4.20486   4.20773
 Alpha virt. eigenvalues --    4.21209   4.21440   4.21903   4.22175   4.22211
 Alpha virt. eigenvalues --    4.22904   4.23421   4.23771   4.24204   4.24521
 Alpha virt. eigenvalues --    4.24880   4.25162   4.25446   4.25826   4.26263
 Alpha virt. eigenvalues --    4.26806   4.27369   4.27603   4.28210   4.28904
 Alpha virt. eigenvalues --    4.29101   4.29721   4.30261   4.30817   4.31090
 Alpha virt. eigenvalues --    4.31489   4.32154   4.33009   4.33139   4.33634
 Alpha virt. eigenvalues --    4.34051   4.34292   4.34613   4.35075   4.35367
 Alpha virt. eigenvalues --    4.35776   4.35791   4.36076   4.36634   4.37103
 Alpha virt. eigenvalues --    4.37464   4.38090   4.38926   4.39076   4.39216
 Alpha virt. eigenvalues --    4.39795   4.40208   4.40743   4.41241   4.41512
 Alpha virt. eigenvalues --    4.42139   4.42698   4.44015   4.44370   4.44965
 Alpha virt. eigenvalues --    4.45385   4.46336   4.46669   4.46836   4.47016
 Alpha virt. eigenvalues --    4.47268   4.47496   4.47816   4.48406   4.48896
 Alpha virt. eigenvalues --    4.49070   4.49535   4.49832   4.50728   4.51064
 Alpha virt. eigenvalues --    4.51716   4.52034   4.52319   4.52577   4.52752
 Alpha virt. eigenvalues --    4.52884   4.53522   4.54236   4.54526   4.56544
 Alpha virt. eigenvalues --    4.56900   4.57551   4.58051   4.58421   4.58627
 Alpha virt. eigenvalues --    4.59324   4.59564   4.59863   4.60293   4.60444
 Alpha virt. eigenvalues --    4.60998   4.61266   4.61566   4.62652   4.63067
 Alpha virt. eigenvalues --    4.63515   4.63837   4.64531   4.64594   4.65444
 Alpha virt. eigenvalues --    4.66091   4.66644   4.67779   4.67985   4.68218
 Alpha virt. eigenvalues --    4.68361   4.68999   4.69344   4.70086   4.70144
 Alpha virt. eigenvalues --    4.70724   4.70996   4.71876   4.72031   4.72651
 Alpha virt. eigenvalues --    4.72963   4.73532   4.74230   4.74597   4.75173
 Alpha virt. eigenvalues --    4.75315   4.75583   4.76207   4.76498   4.76969
 Alpha virt. eigenvalues --    4.77388   4.77601   4.78036   4.78573   4.78789
 Alpha virt. eigenvalues --    4.79022   4.79670   4.80336   4.80672   4.81383
 Alpha virt. eigenvalues --    4.81957   4.82326   4.82528   4.82769   4.83117
 Alpha virt. eigenvalues --    4.83454   4.83561   4.83993   4.84676   4.84852
 Alpha virt. eigenvalues --    4.85649   4.86324   4.87007   4.87984   4.88373
 Alpha virt. eigenvalues --    4.88942   4.89189   4.89372   4.89520   4.89699
 Alpha virt. eigenvalues --    4.89949   4.90094   4.90323   4.90856   4.90994
 Alpha virt. eigenvalues --    4.91656   4.92505   4.93039   4.93669   4.93916
 Alpha virt. eigenvalues --    4.94221   4.94394   4.95966   4.96633   4.97020
 Alpha virt. eigenvalues --    4.97633   4.97655   4.98018   4.98354   4.98525
 Alpha virt. eigenvalues --    4.99918   5.00140   5.00851   5.01373   5.01532
 Alpha virt. eigenvalues --    5.02422   5.02921   5.03910   5.04326   5.04485
 Alpha virt. eigenvalues --    5.04643   5.05130   5.05554   5.06409   5.06650
 Alpha virt. eigenvalues --    5.07331   5.07467   5.07732   5.08470   5.09130
 Alpha virt. eigenvalues --    5.10119   5.10256   5.10707   5.11277   5.12885
 Alpha virt. eigenvalues --    5.13064   5.13172   5.13285   5.13811   5.13873
 Alpha virt. eigenvalues --    5.14287   5.14672   5.16039   5.16115   5.16234
 Alpha virt. eigenvalues --    5.16695   5.16784   5.16846   5.16948   5.17841
 Alpha virt. eigenvalues --    5.17960   5.18160   5.18836   5.19011   5.19535
 Alpha virt. eigenvalues --    5.19682   5.20278   5.20893   5.21286   5.22030
 Alpha virt. eigenvalues --    5.23329   5.23919   5.24543   5.24806   5.25334
 Alpha virt. eigenvalues --    5.25732   5.25801   5.25969   5.26579   5.27317
 Alpha virt. eigenvalues --    5.27801   5.28835   5.29010   5.29183   5.29288
 Alpha virt. eigenvalues --    5.29658   5.29872   5.30175   5.30800   5.31277
 Alpha virt. eigenvalues --    5.31637   5.31919   5.32385   5.32901   5.33359
 Alpha virt. eigenvalues --    5.34419   5.34767   5.35845   5.36172   5.36540
 Alpha virt. eigenvalues --    5.36974   5.37412   5.37668   5.37915   5.38506
 Alpha virt. eigenvalues --    5.38845   5.39361   5.40082   5.40868   5.41276
 Alpha virt. eigenvalues --    5.41533   5.41701   5.42306   5.42668   5.43458
 Alpha virt. eigenvalues --    5.43908   5.44493   5.44937   5.45553   5.45652
 Alpha virt. eigenvalues --    5.45950   5.46173   5.46410   5.47310   5.47728
 Alpha virt. eigenvalues --    5.48398   5.49163   5.49636   5.50347   5.50530
 Alpha virt. eigenvalues --    5.50655   5.50932   5.51238   5.51348   5.51925
 Alpha virt. eigenvalues --    5.53100   5.54312   5.55303   5.56901   5.57407
 Alpha virt. eigenvalues --    5.57800   5.58467   5.58628   5.59159   5.59580
 Alpha virt. eigenvalues --    5.59679   5.60077   5.61143   5.61299   5.62029
 Alpha virt. eigenvalues --    5.62228   5.63720   5.64303   5.64541   5.64971
 Alpha virt. eigenvalues --    5.65339   5.66442   5.66585   5.66867   5.67725
 Alpha virt. eigenvalues --    5.67879   5.68597   5.69001   5.69283   5.70413
 Alpha virt. eigenvalues --    5.71039   5.71553   5.72134   5.72746   5.73924
 Alpha virt. eigenvalues --    5.75333   5.77420   5.78302   5.80384   5.82490
 Alpha virt. eigenvalues --    5.83673   5.84686   5.85437   5.85500   5.88482
 Alpha virt. eigenvalues --    5.89318   5.91613   5.91753   5.92197   5.92415
 Alpha virt. eigenvalues --    5.93490   5.95161   5.97346   5.99323   6.01147
 Alpha virt. eigenvalues --    6.02484   6.03334   6.03995   6.09955   6.18214
 Alpha virt. eigenvalues --    6.18957   6.19214   6.19546   6.21321   6.21842
 Alpha virt. eigenvalues --    6.21976   6.22101   6.22359   6.25128   6.25449
 Alpha virt. eigenvalues --    6.26499   6.26657   6.26918   6.27943   6.28387
 Alpha virt. eigenvalues --    6.30659   6.30811   6.35884   6.36066   6.39922
 Alpha virt. eigenvalues --    6.40168   6.41625   6.41801   6.42470   6.42829
 Alpha virt. eigenvalues --    6.43884   6.44024   6.45126   6.45169   6.56684
 Alpha virt. eigenvalues --    6.56775   6.58619   6.59268   6.73753   6.73817
 Alpha virt. eigenvalues --    6.73997   6.74136   6.77823   6.77969   6.79762
 Alpha virt. eigenvalues --    6.80037   6.80524   6.80612   6.81386   6.81668
 Alpha virt. eigenvalues --    6.81879   6.82400   6.83003   6.83964   6.87033
 Alpha virt. eigenvalues --    6.87520   6.87525   6.87809   6.88001   6.88051
 Alpha virt. eigenvalues --    6.88359   6.88511   6.88780   6.89037   6.89309
 Alpha virt. eigenvalues --    6.89437   6.89495   6.90094   6.92431   6.93774
 Alpha virt. eigenvalues --    6.94680   6.94728   6.96702   6.96920   6.97938
 Alpha virt. eigenvalues --    6.98160   6.98300   6.98603   6.99877   7.00981
 Alpha virt. eigenvalues --    7.01898   7.02686   7.04775   7.06059   7.07439
 Alpha virt. eigenvalues --    7.08414   7.08538   7.08939   7.09665   7.11103
 Alpha virt. eigenvalues --    7.11349   7.13704   7.13922   7.14755   7.15700
 Alpha virt. eigenvalues --    7.17470   7.20197   7.20595   7.22086   7.22155
 Alpha virt. eigenvalues --    7.22598   7.24420   7.25001   7.25138   7.25796
 Alpha virt. eigenvalues --    7.26621   7.27222   7.27683   7.28060   7.28508
 Alpha virt. eigenvalues --    7.31575   7.33120   7.33200   7.33260   7.34583
 Alpha virt. eigenvalues --    7.36361   7.39078   7.41715   7.42242   7.42290
 Alpha virt. eigenvalues --    7.44497   7.44885   7.45018   7.48310   7.48716
 Alpha virt. eigenvalues --    7.53324   7.53924   7.57454   7.58045   7.58223
 Alpha virt. eigenvalues --    7.60381   7.60412   7.62903   7.68244   7.96450
 Alpha virt. eigenvalues --    8.29668   8.32049   8.34699   8.35398   8.40500
 Alpha virt. eigenvalues --    8.44170   8.46143   8.51446   8.51654   8.54649
 Alpha virt. eigenvalues --    8.54800   8.57274   8.63409   8.66681   8.69747
 Alpha virt. eigenvalues --    8.71312   8.74003   8.77184   8.77381   8.82615
 Alpha virt. eigenvalues --    8.83504   8.86276   8.88718   8.89958   8.91469
 Alpha virt. eigenvalues --    8.91528   8.93799   8.94449   8.98275   8.99692
 Alpha virt. eigenvalues --    9.01062   9.03158   9.05294   9.08408   9.30920
 Alpha virt. eigenvalues --   15.87749  22.51069  22.88632  22.91000  22.92683
 Alpha virt. eigenvalues --   22.95617  22.95713  22.96999  23.08474  23.11961
 Alpha virt. eigenvalues --   23.12336  23.12592  23.14461  23.15903  23.17432
 Alpha virt. eigenvalues --   23.17809  23.20532  23.27216  23.28337  23.31843
 Alpha virt. eigenvalues --   23.37502  23.38115  23.40301  23.44155  23.50168
 Alpha virt. eigenvalues --   23.54240  23.55284  23.58497  23.59279  23.68836
 Alpha virt. eigenvalues --   23.71318  23.73268  23.75336  23.77940  23.87624
 Alpha virt. eigenvalues --   23.96625  23.98912  24.04021  32.57488  32.57928
 Alpha virt. eigenvalues --   32.59861  32.60039  33.14138  33.28462  44.20720
 Alpha virt. eigenvalues --   44.21565  44.22764  44.24005  44.26016  44.29724
 Alpha virt. eigenvalues --   44.33226  44.34654  44.35182  44.36416  57.32351
 Alpha virt. eigenvalues --   57.41437  57.49167  57.57330  57.60555  57.66248
 Alpha virt. eigenvalues --   57.73615
          Condensed to atoms (all electrons):
 Mulliken charges:
               1
     1  C   -0.313358
     2  C   -0.442306
     3  C    0.018090
     4  C    0.164322
     5  C   -0.163464
     6  C   -0.067363
     7  C   -0.020605
     8  C    0.237598
     9  O   -0.345779
    10  C   -0.093760
    11  C    0.068548
    12  C   -0.138460
    13  C    0.016301
    14  N    0.509916
    15  O   -0.368674
    16  O   -0.368485
    17  N    0.527334
    18  O   -0.346688
    19  O   -0.380470
    20  N   -0.078076
    21  C    0.090306
    22  C    0.138798
    23  C   -0.462661
    24  C    0.079563
    25  C    0.173436
    26  C    0.109727
    27  C   -0.505818
    28  C    0.027527
    29  C   -0.246119
    30  C   -0.457303
    31  C    0.093296
    32  C   -0.178633
    33  C   -0.086706
    34  C    0.006805
    35  C    0.233757
    36  O   -0.341281
    37  C   -0.088859
    38  C    0.068871
    39  C   -0.139224
    40  C    0.008606
    41  N    0.519540
    42  O   -0.368988
    43  O   -0.371723
    44  N    0.518211
    45  O   -0.379414
    46  O   -0.342348
    47  N   -0.089309
    48  B    0.327020
    49  F   -0.349383
    50  F   -0.325290
    51  C   -0.491137
    52  C    0.254778
    53  F   -0.178743
    54  C    0.194813
    55  F   -0.174749
    56  C    0.188375
    57  F   -0.170151
    58  C    0.187244
    59  F   -0.175083
    60  C    0.263462
    61  F   -0.178784
    62  H    0.120759
    63  H    0.118924
    64  H    0.133194
    65  H    0.138826
    66  H    0.150014
    67  H    0.167821
    68  H    0.099853
    69  H    0.271920
    70  H    0.214037
    71  H    0.173747
    72  H    0.165660
    73  H    0.133343
    74  H    0.173800
    75  H    0.180824
    76  H    0.162965
    77  H    0.160631
    78  H    0.149649
    79  H    0.123354
    80  H    0.142905
    81  H    0.133884
    82  H    0.132534
    83  H    0.172404
    84  H    0.131574
    85  H    0.265826
    86  H    0.213434
    87  H    0.171069
 Sum of Mulliken charges =  -0.00000
 Mulliken charges with hydrogens summed into heavy atoms:
               1
     1  C    0.059518
     2  C   -0.153466
     3  C    0.018090
     4  C    0.164322
     5  C    0.004358
     6  C    0.032489
     7  C   -0.020605
     8  C    0.237598
     9  O   -0.073859
    10  C   -0.093760
    11  C    0.282585
    12  C   -0.138460
    13  C    0.190048
    14  N    0.509916
    15  O   -0.368674
    16  O   -0.368485
    17  N    0.527334
    18  O   -0.346688
    19  O   -0.380470
    20  N   -0.078076
    21  C    0.090306
    22  C    0.138798
    23  C    0.010142
    24  C    0.079563
    25  C    0.173436
    26  C    0.109727
    27  C   -0.001398
    28  C    0.027527
    29  C    0.026884
    30  C   -0.047980
    31  C    0.093296
    32  C   -0.006229
    33  C    0.044868
    34  C    0.006805
    35  C    0.233757
    36  O   -0.075456
    37  C   -0.088859
    38  C    0.282305
    39  C   -0.139224
    40  C    0.179675
    41  N    0.519540
    42  O   -0.368988
    43  O   -0.371723
    44  N    0.518211
    45  O   -0.379414
    46  O   -0.342348
    47  N   -0.089309
    48  B    0.327020
    49  F   -0.349383
    50  F   -0.325290
    51  C   -0.491137
    52  C    0.254778
    53  F   -0.178743
    54  C    0.194813
    55  F   -0.174749
    56  C    0.188375
    57  F   -0.170151
    58  C    0.187244
    59  F   -0.175083
    60  C    0.263462
    61  F   -0.178784
 Electronic spatial extent (au):  <R**2>=          57242.0115
 Charge=             -0.0000 electrons
 Dipole moment (field-independent basis, Debye):
    X=            -12.7271    Y=              2.4940    Z=             -0.2313  Tot=             12.9713
 Quadrupole moment (field-independent basis, Debye-Ang):
   XX=           -410.3391   YY=           -349.7348   ZZ=           -364.9097
   XY=              6.5029   XZ=             -3.7673   YZ=             -7.5724
 Traceless Quadrupole moment (field-independent basis, Debye-Ang):
   XX=            -35.3446   YY=             25.2597   ZZ=             10.0848
   XY=              6.5029   XZ=             -3.7673   YZ=             -7.5724
 Octapole moment (field-independent basis, Debye-Ang**2):
  XXX=           -713.0992  YYY=            212.8937  ZZZ=             -3.0069  XYY=           -492.7382
  XXY=            103.9539  XXZ=            -54.6330  XZZ=            -15.3159  YZZ=             20.1837
  YYZ=            171.4391  XYZ=            -60.8073
 Hexadecapole moment (field-independent basis, Debye-Ang**3):
 XXXX=         -48631.3274 YYYY=         -32235.1535 ZZZZ=          -2429.5362 XXXY=            172.5612
 XXXZ=           -600.5082 YYYX=           1176.8090 YYYZ=           -498.7811 ZZZX=             25.6135
 ZZZY=            -89.5734 XXYY=         -13752.2465 XXZZ=          -8020.4525 YYZZ=          -5456.5958
 XXYZ=           -307.8576 YYXZ=           1007.4834 ZZXY=             67.6157
 N-N= 8.865523091181D+03 E-N=-2.529609984074D+04  KE= 3.214080949058D+03
 No NMR shielding tensors so no spin-rotation constants.
 Leave Link  601 at Thu Oct  9 11:31:52 2025, MaxMem= 30870077440 cpu:             159.1 elap:               3.0
 (Enter /work/home/accqbws0vm/apprepo/gaussian/16-hy/scripts/../app/g16/l9999.exe)
 1\1\GINC-G03R4N36\SP\RM062X\def2TZVPP\C37H26B1F7N6O10\ACCQBWS0VM\09-Oc
 t-2025\0\\#p M062X/DEF2TZVPP scrf=(solvent=water) em=GD3\\Energy calcu
 lation for M100035680\\0,1\C,0,-1.695829,-5.512714,-1.180044\C,0,-1.63
 4153,-4.847308,0.206003\C,0,-1.811752,-3.352487,0.174122\C,0,-0.782733
 ,-2.362834,0.183979\C,0,0.659218,-2.487639,0.24546\C,0,1.365167,-3.553
 125,-0.2062\C,0,2.808056,-3.782603,-0.172774\C,0,3.771671,-2.88886,0.3
 93997\O,0,3.349199,-1.75386,0.933829\C,0,5.147604,-3.251965,0.358313\C
 ,0,5.588309,-4.442612,-0.214622\C,0,4.637064,-5.284665,-0.758362\C,0,3
 .27591,-4.969347,-0.739245\N,0,5.070253,-6.533392,-1.366205\O,0,6.2771
 41,-6.796419,-1.371585\O,0,4.211011,-7.276446,-1.851085\N,0,6.155256,-
 2.386658,0.92873\O,0,7.33398,-2.728649,0.891508\O,0,5.795894,-1.306444
 ,1.449332\N,0,-1.360769,-1.125491,0.207876\C,0,-2.73835,-1.273061,0.20
 0522\C,0,-3.03428,-2.678607,0.184726\C,0,-4.374359,-3.351007,0.211413\
 C,0,-3.564973,-0.133086,0.182186\C,0,-3.030978,1.167219,0.146355\C,0,-
 3.678902,2.4539,0.059767\C,0,-5.159447,2.701065,0.120413\C,0,-2.668796
 ,3.401633,-0.081847\C,0,-2.6921,4.906729,-0.261097\C,0,-4.027153,5.650
 985,-0.345483\C,0,-1.418892,2.700324,-0.027017\C,0,-0.144811,3.377338,
 -0.14699\C,0,1.065173,2.952264,0.29428\C,0,2.365932,3.602832,0.174491\
 C,0,2.615963,4.843528,-0.492533\O,0,1.598677,5.483232,-1.051207\C,0,3.
 948321,5.342881,-0.535931\C,0,5.015713,4.664725,0.04848\C,0,4.746282,3
 .467026,0.683754\C,0,3.453298,2.942269,0.749114\N,0,5.842498,2.733172,
 1.296631\O,0,5.587854,1.660608,1.85428\O,0,6.97899,3.212389,1.2331\N,0
 ,4.247207,6.590921,-1.20086\O,0,3.312183,7.219854,-1.747166\O,0,5.4032
 91,7.003977,-1.216551\N,0,-1.648413,1.363544,0.11845\B,0,-0.599584,0.2
 18283,0.180097\F,0,0.160315,0.316653,1.367588\F,0,0.251881,0.273734,-0
 .924678\C,0,-5.042658,-0.337685,0.154724\C,0,-5.755516,-0.659785,1.309
 687\F,0,-5.111569,-0.78841,2.480815\C,0,-7.128287,-0.876335,1.292107\F
 ,0,-7.780939,-1.189158,2.418875\C,0,-7.823347,-0.773103,0.091967\F,0,-
 9.143272,-0.978896,0.062241\C,0,-7.140364,-0.455916,-1.077292\F,0,-7.8
 07451,-0.348948,-2.233704\C,0,-5.767467,-0.243415,-1.033762\F,0,-5.141
 67,0.077674,-2.177047\H,0,-2.663303,-5.330804,-1.659031\H,0,-0.919483,
 -5.125984,-1.84843\H,0,-1.559117,-6.595628,-1.093173\H,0,-2.414197,-5.
 28305,0.839399\H,0,-0.683738,-5.091917,0.689876\H,0,1.176399,-1.64422,
 0.678675\H,0,0.830756,-4.36279,-0.690672\H,0,4.144686,-1.261974,1.2660
 16\H,0,6.640258,-4.688815,-0.228025\H,0,2.568143,-5.663352,-1.175337\H
 ,0,-5.043863,-2.970922,-0.564953\H,0,-4.264097,-4.425349,0.054664\H,0,
 -4.876032,-3.210095,1.174954\H,0,-5.641015,2.506232,-0.844685\H,0,-5.6
 4392,2.06592,0.863458\H,0,-5.371888,3.732077,0.38839\H,0,-2.100744,5.3
 55275,0.547375\H,0,-2.131626,5.131285,-1.178509\H,0,-4.669395,5.264705
 ,-1.142007\H,0,-4.583346,5.619438,0.595443\H,0,-3.826073,6.704165,-0.5
 66553\H,0,-0.21936,4.349975,-0.611937\H,0,1.119081,2.015618,0.833186\H
 ,0,1.957043,6.308183,-1.471124\H,0,6.016494,5.069167,-0.001466\H,0,3.2
 91441,1.997636,1.253211\\Version=ES64L-G16RevA.03\State=1-A\HF=-3229.9
 644425\RMSD=2.309e-09\Dipole=-5.0072384,0.98123,-0.090983\Quadrupole=-
 26.2778083,18.7799923,7.497816,4.8347607,-2.8008637,-5.6298893\PG=C01 
 [X(C37H26B1F7N6O10)]\\@


 WE ARE PERHAPS NOT FAR REMOVED FROM THE TIME WHEN WE SHALL BE ABLE TO SUBMIT
 THE BULK OF CHEMICAL PHENOMENA TO CALCULATION.

            -- JOSEPH LOUIS GAY-LUSSAC
               MEMOIRES DE LA SOCIETE D'ARCUEIL, 2, 207 (1808)
 Job cpu time:       1 days  8 hours 44 minutes 26.3 seconds.
 Elapsed time:       0 days  0 hours 31 minutes 16.3 seconds.
 File lengths (MBytes):  RWF=   3315 Int=      0 D2E=      0 Chk=    295 Scr=      1
 Normal termination of Gaussian 16 at Thu Oct  9 11:31:52 2025.
