 Entering Gaussian System, Link 0=g16
 Input=M100034833_sp.gjf
 Output=M100034833_sp.log
 Initial command:
 /public/software/gauss/g16/l1.exe "/public/home/baiding/1101_v2_sp/tmp_M100034833_sp_1568608/Gau-4188400.inp" -scrdir="/public/home/baiding/1101_v2_sp/tmp_M100034833_sp_1568608/"
 Entering Link 1 = /public/software/gauss/g16/l1.exe PID=   4188401.
  
 Copyright (c) 1988,1990,1992,1993,1995,1998,2003,2009,2016,
            Gaussian, Inc.  All Rights Reserved.
  
 This is part of the Gaussian(R) 16 program.  It is based on
 the Gaussian(R) 09 system (copyright 2009, Gaussian, Inc.),
 the Gaussian(R) 03 system (copyright 2003, Gaussian, Inc.),
 the Gaussian(R) 98 system (copyright 1998, Gaussian, Inc.),
 the Gaussian(R) 94 system (copyright 1995, Gaussian, Inc.),
 the Gaussian 92(TM) system (copyright 1992, Gaussian, Inc.),
 the Gaussian 90(TM) system (copyright 1990, Gaussian, Inc.),
 the Gaussian 88(TM) system (copyright 1988, Gaussian, Inc.),
 the Gaussian 86(TM) system (copyright 1986, Carnegie Mellon
 University), and the Gaussian 82(TM) system (copyright 1983,
 Carnegie Mellon University). Gaussian is a federally registered
 trademark of Gaussian, Inc.
  
 This software contains proprietary and confidential information,
 including trade secrets, belonging to Gaussian, Inc.
  
 This software is provided under written license and may be
 used, copied, transmitted, or stored only in accord with that
 written license.
  
 The following legend is applicable only to US Government
 contracts under FAR:
  
                    RESTRICTED RIGHTS LEGEND
  
 Use, reproduction and disclosure by the US Government is
 subject to restrictions as set forth in subparagraphs (a)
 and (c) of the Commercial Computer Software - Restricted
 Rights clause in FAR 52.227-19.
  
 Gaussian, Inc.
 340 Quinnipiac St., Bldg. 40, Wallingford CT 06492
  
  
 ---------------------------------------------------------------
 Warning -- This program may not be used in any manner that
 competes with the business of Gaussian, Inc. or will provide
 assistance to any competitor of Gaussian, Inc.  The licensee
 of this program is prohibited from giving any competitor of
 Gaussian, Inc. access to this program.  By using this program,
 the user acknowledges that Gaussian, Inc. is engaged in the
 business of creating and licensing software in the field of
 computational chemistry and represents and warrants to the
 licensee that it is not a competitor of Gaussian, Inc. and that
 it will not use this program in any manner prohibited above.
 ---------------------------------------------------------------
  

 Cite this work as:
 Gaussian 16, Revision A.03,
 M. J. Frisch, G. W. Trucks, H. B. Schlegel, G. E. Scuseria, 
 M. A. Robb, J. R. Cheeseman, G. Scalmani, V. Barone, 
 G. A. Petersson, H. Nakatsuji, X. Li, M. Caricato, A. V. Marenich, 
 J. Bloino, B. G. Janesko, R. Gomperts, B. Mennucci, H. P. Hratchian, 
 J. V. Ortiz, A. F. Izmaylov, J. L. Sonnenberg, D. Williams-Young, 
 F. Ding, F. Lipparini, F. Egidi, J. Goings, B. Peng, A. Petrone, 
 T. Henderson, D. Ranasinghe, V. G. Zakrzewski, J. Gao, N. Rega, 
 G. Zheng, W. Liang, M. Hada, M. Ehara, K. Toyota, R. Fukuda, 
 J. Hasegawa, M. Ishida, T. Nakajima, Y. Honda, O. Kitao, H. Nakai, 
 T. Vreven, K. Throssell, J. A. Montgomery, Jr., J. E. Peralta, 
 F. Ogliaro, M. J. Bearpark, J. J. Heyd, E. N. Brothers, K. N. Kudin, 
 V. N. Staroverov, T. A. Keith, R. Kobayashi, J. Normand, 
 K. Raghavachari, A. P. Rendell, J. C. Burant, S. S. Iyengar, 
 J. Tomasi, M. Cossi, J. M. Millam, M. Klene, C. Adamo, R. Cammi, 
 J. W. Ochterski, R. L. Martin, K. Morokuma, O. Farkas, 
 J. B. Foresman, and D. J. Fox, Gaussian, Inc., Wallingford CT, 2016.
 
 ******************************************
 Gaussian 16:  ES64L-G16RevA.03 25-Dec-2016
                 7-Nov-2025 
 ******************************************
 %nprocshared=64
 Will use up to   64 processors via shared memory.
 %mem=230GB
 %chk=M100034833_sp.chk
 ----------------------------------------------
 #p M062X/DEF2TZVPP scrf=(solvent=water) em=GD3
 ----------------------------------------------
 1/38=1,172=1/1;
 2/12=2,17=6,18=5,40=1/2;
 3/5=44,7=202,11=2,25=1,30=1,70=2201,72=1,74=-55,124=31/1,2,3;
 4//1;
 5/5=2,38=5,53=1/2;
 6/7=2,8=2,9=2,10=2,28=1/1;
 99/5=1,9=1/99;
 Leave Link    1 at Fri Nov  7 00:33:25 2025, MaxMem= 30870077440 cpu:              14.3 elap:               0.2
 (Enter /public/software/gauss/g16/l101.exe)
 ---------------------------------
 Energy calculation for M100034833
 ---------------------------------
 Symbolic Z-matrix:
 Charge =  0 Multiplicity = 1
 O                    -0.29606   7.84632   0.68972 
 N                     0.29552   7.18354  -0.16823 
 O                     0.93982   7.69371  -1.09024 
 C                     0.2293    5.72622  -0.08887 
 C                    -0.49187   5.14028   0.95094 
 C                    -0.55542   3.75384   1.01845 
 C                     0.10031   2.9599    0.06062 
 C                     0.03814   1.47887   0.13572 
 C                    -1.20325   0.82481   0.19374 
 C                    -2.52645   1.33147   0.21042 
 C                    -3.39001   0.25227   0.31895 
 C                    -2.58522  -0.90864   0.34454 
 S                    -3.08128  -2.59952   0.50104 
 C                    -4.81225  -2.50019   0.17295 
 C                    -5.82771  -2.48419   1.09828 
 C                    -7.12193  -2.49249   0.50203 
 C                    -7.07725  -2.52039  -0.86635 
 S                    -5.45061  -2.54514  -1.46044 
 N                    -1.27572  -0.57206   0.26757 
 B                    -0.07046  -1.5223    0.01083 
 F                    -0.1177   -2.01664  -1.29284 
 F                    -0.0895   -2.58066   0.92413 
 N                     1.20724  -0.66236   0.21901 
 C                     2.48554  -1.08724   0.35605 
 S                     2.86599  -2.80912   0.50267 
 C                     4.61224  -2.81196   0.24777 
 C                     5.58697  -2.87774   1.21383 
 C                     6.90248  -2.95071   0.67069 
 C                     6.91402  -2.9451   -0.69866 
 S                     5.31509  -2.85934  -1.35863 
 C                     3.36416   0.01874   0.40265 
 C                     2.57853   1.15492   0.2888 
 C                     1.22956   0.73629   0.17403 
 C                     0.82536   3.58252  -0.97119 
 C                     0.89051   4.96803  -1.05435 
 H                    -0.98529   5.75724   1.69062 
 H                    -1.09701   3.28387   1.83096 
 H                    -2.80095   2.37505   0.16162 
 H                    -4.4672    0.27224   0.38542 
 H                    -5.64954  -2.46613   2.16713 
 H                    -8.04634  -2.47669   1.06731 
 H                    -7.90585  -2.52723  -1.56278 
 H                     5.36585  -2.87176   2.27479 
 H                     7.80161  -3.00214   1.27343 
 H                     7.76894  -2.98539  -1.36134 
 H                     4.43473  -0.0346    0.52962 
 H                     2.91702   2.18047   0.31579 
 H                     1.32245   2.97788  -1.72088 
 H                     1.43786   5.45312  -1.85198 
 
 ITRead=  0  0  0  0  0  0  0  0  0  0  0  0  0  0  0  0  0  0  0  0
 ITRead=  0  0  0  0  0  0  0  0  0  0  0  0  0  0  0  0  0  0  0  0
 ITRead=  0  0  0  0  0  0  0  0  0
 MicOpt= -1 -1 -1 -1 -1 -1 -1 -1 -1 -1 -1 -1 -1 -1 -1 -1 -1 -1 -1 -1
 MicOpt= -1 -1 -1 -1 -1 -1 -1 -1 -1 -1 -1 -1 -1 -1 -1 -1 -1 -1 -1 -1
 MicOpt= -1 -1 -1 -1 -1 -1 -1 -1 -1
 NAtoms=     49 NQM=       49 NQMF=       0 NMMI=      0 NMMIF=      0
                NMic=       0 NMicF=      0.
                    Isotopes and Nuclear Properties:
 (Nuclear quadrupole moments (NQMom) in fm**2, nuclear magnetic moments (NMagM)
  in nuclear magnetons)

  Atom         1           2           3           4           5           6           7           8           9          10
 IAtWgt=          16          14          16          12          12          12          12          12          12          12
 AtmWgt=  15.9949146  14.0030740  15.9949146  12.0000000  12.0000000  12.0000000  12.0000000  12.0000000  12.0000000  12.0000000
 NucSpn=           0           2           0           0           0           0           0           0           0           0
 AtZEff=  -0.0000000  -0.0000000  -0.0000000  -0.0000000  -0.0000000  -0.0000000  -0.0000000  -0.0000000  -0.0000000  -0.0000000
 NQMom=    0.0000000   2.0440000   0.0000000   0.0000000   0.0000000   0.0000000   0.0000000   0.0000000   0.0000000   0.0000000
 NMagM=    0.0000000   0.4037610   0.0000000   0.0000000   0.0000000   0.0000000   0.0000000   0.0000000   0.0000000   0.0000000
 AtZNuc=   8.0000000   7.0000000   8.0000000   6.0000000   6.0000000   6.0000000   6.0000000   6.0000000   6.0000000   6.0000000

  Atom        11          12          13          14          15          16          17          18          19          20
 IAtWgt=          12          12          32          12          12          12          12          32          14          11
 AtmWgt=  12.0000000  12.0000000  31.9720718  12.0000000  12.0000000  12.0000000  12.0000000  31.9720718  14.0030740  11.0093053
 NucSpn=           0           0           0           0           0           0           0           0           2           3
 AtZEff=  -0.0000000  -0.0000000  -0.0000000  -0.0000000  -0.0000000  -0.0000000  -0.0000000  -0.0000000  -0.0000000  -0.0000000
 NQMom=    0.0000000   0.0000000   0.0000000   0.0000000   0.0000000   0.0000000   0.0000000   0.0000000   2.0440000   4.0590000
 NMagM=    0.0000000   0.0000000   0.0000000   0.0000000   0.0000000   0.0000000   0.0000000   0.0000000   0.4037610   2.6886370
 AtZNuc=   6.0000000   6.0000000  16.0000000   6.0000000   6.0000000   6.0000000   6.0000000  16.0000000   7.0000000   5.0000000

  Atom        21          22          23          24          25          26          27          28          29          30
 IAtWgt=          19          19          14          12          32          12          12          12          12          32
 AtmWgt=  18.9984033  18.9984033  14.0030740  12.0000000  31.9720718  12.0000000  12.0000000  12.0000000  12.0000000  31.9720718
 NucSpn=           1           1           2           0           0           0           0           0           0           0
 AtZEff=  -0.0000000  -0.0000000  -0.0000000  -0.0000000  -0.0000000  -0.0000000  -0.0000000  -0.0000000  -0.0000000  -0.0000000
 NQMom=    0.0000000   0.0000000   2.0440000   0.0000000   0.0000000   0.0000000   0.0000000   0.0000000   0.0000000   0.0000000
 NMagM=    2.6288670   2.6288670   0.4037610   0.0000000   0.0000000   0.0000000   0.0000000   0.0000000   0.0000000   0.0000000
 AtZNuc=   9.0000000   9.0000000   7.0000000   6.0000000  16.0000000   6.0000000   6.0000000   6.0000000   6.0000000  16.0000000

  Atom        31          32          33          34          35          36          37          38          39          40
 IAtWgt=          12          12          12          12          12           1           1           1           1           1
 AtmWgt=  12.0000000  12.0000000  12.0000000  12.0000000  12.0000000   1.0078250   1.0078250   1.0078250   1.0078250   1.0078250
 NucSpn=           0           0           0           0           0           1           1           1           1           1
 AtZEff=  -0.0000000  -0.0000000  -0.0000000  -0.0000000  -0.0000000  -0.0000000  -0.0000000  -0.0000000  -0.0000000  -0.0000000
 NQMom=    0.0000000   0.0000000   0.0000000   0.0000000   0.0000000   0.0000000   0.0000000   0.0000000   0.0000000   0.0000000
 NMagM=    0.0000000   0.0000000   0.0000000   0.0000000   0.0000000   2.7928460   2.7928460   2.7928460   2.7928460   2.7928460
 AtZNuc=   6.0000000   6.0000000   6.0000000   6.0000000   6.0000000   1.0000000   1.0000000   1.0000000   1.0000000   1.0000000

  Atom        41          42          43          44          45          46          47          48          49
 IAtWgt=           1           1           1           1           1           1           1           1           1
 AtmWgt=   1.0078250   1.0078250   1.0078250   1.0078250   1.0078250   1.0078250   1.0078250   1.0078250   1.0078250
 NucSpn=           1           1           1           1           1           1           1           1           1
 AtZEff=  -0.0000000  -0.0000000  -0.0000000  -0.0000000  -0.0000000  -0.0000000  -0.0000000  -0.0000000  -0.0000000
 NQMom=    0.0000000   0.0000000   0.0000000   0.0000000   0.0000000   0.0000000   0.0000000   0.0000000   0.0000000
 NMagM=    2.7928460   2.7928460   2.7928460   2.7928460   2.7928460   2.7928460   2.7928460   2.7928460   2.7928460
 AtZNuc=   1.0000000   1.0000000   1.0000000   1.0000000   1.0000000   1.0000000   1.0000000   1.0000000   1.0000000
 Leave Link  101 at Fri Nov  7 00:33:25 2025, MaxMem= 30870077440 cpu:               3.6 elap:               0.1
 (Enter /public/software/gauss/g16/l202.exe)
                          Input orientation:                          
 ---------------------------------------------------------------------
 Center     Atomic      Atomic             Coordinates (Angstroms)
 Number     Number       Type             X           Y           Z
 ---------------------------------------------------------------------
      1          8           0       -0.296061    7.846318    0.689717
      2          7           0        0.295523    7.183543   -0.168230
      3          8           0        0.939819    7.693705   -1.090240
      4          6           0        0.229304    5.726224   -0.088870
      5          6           0       -0.491872    5.140276    0.950936
      6          6           0       -0.555418    3.753843    1.018448
      7          6           0        0.100312    2.959902    0.060620
      8          6           0        0.038141    1.478872    0.135715
      9          6           0       -1.203253    0.824811    0.193740
     10          6           0       -2.526447    1.331465    0.210424
     11          6           0       -3.390011    0.252265    0.318954
     12          6           0       -2.585217   -0.908638    0.344537
     13         16           0       -3.081281   -2.599515    0.501035
     14          6           0       -4.812254   -2.500189    0.172953
     15          6           0       -5.827705   -2.484187    1.098275
     16          6           0       -7.121927   -2.492485    0.502029
     17          6           0       -7.077245   -2.520387   -0.866354
     18         16           0       -5.450611   -2.545138   -1.460444
     19          7           0       -1.275722   -0.572063    0.267573
     20          5           0       -0.070462   -1.522300    0.010830
     21          9           0       -0.117703   -2.016644   -1.292841
     22          9           0       -0.089498   -2.580656    0.924131
     23          7           0        1.207237   -0.662362    0.219006
     24          6           0        2.485539   -1.087244    0.356050
     25         16           0        2.865987   -2.809115    0.502667
     26          6           0        4.612242   -2.811956    0.247766
     27          6           0        5.586966   -2.877744    1.213825
     28          6           0        6.902478   -2.950705    0.670693
     29          6           0        6.914015   -2.945101   -0.698656
     30         16           0        5.315086   -2.859344   -1.358626
     31          6           0        3.364161    0.018736    0.402652
     32          6           0        2.578532    1.154919    0.288800
     33          6           0        1.229560    0.736286    0.174031
     34          6           0        0.825357    3.582517   -0.971188
     35          6           0        0.890512    4.968032   -1.054352
     36          1           0       -0.985294    5.757242    1.690616
     37          1           0       -1.097005    3.283872    1.830955
     38          1           0       -2.800950    2.375049    0.161623
     39          1           0       -4.467205    0.272236    0.385418
     40          1           0       -5.649539   -2.466125    2.167128
     41          1           0       -8.046341   -2.476692    1.067313
     42          1           0       -7.905849   -2.527233   -1.562775
     43          1           0        5.365854   -2.871760    2.274785
     44          1           0        7.801613   -3.002137    1.273434
     45          1           0        7.768942   -2.985386   -1.361337
     46          1           0        4.434735   -0.034603    0.529616
     47          1           0        2.917019    2.180467    0.315787
     48          1           0        1.322454    2.977884   -1.720875
     49          1           0        1.437858    5.453117   -1.851984
 ---------------------------------------------------------------------
                    Distance matrix (angstroms):
                    1          2          3          4          5
     1  O    0.000000
     2  N    1.235037   0.000000
     3  O    2.172311   1.235105   0.000000
     4  C    2.318837   1.460980   2.319171   0.000000
     5  C    2.725663   2.459159   3.568773   1.394499   0.000000
     6  C    4.113840   3.727620   4.712198   2.394207   1.389530
     7  C    4.942665   4.234339   4.943495   2.773360   2.428451
     8  C    6.400233   5.718557   6.398448   4.257579   3.788321
     9  C    7.097221   6.542998   7.309108   5.114288   4.438766
    10  C    6.902728   6.507973   7.361034   5.195926   4.381198
    11  C    8.208510   7.865311   8.724006   6.574952   5.717627
    12  C    9.055862   8.604940   9.406634   7.220164   6.429555
    13  S   10.812422  10.371063  11.164756   8.979192   8.173849
    14  C   11.301029  10.953559  11.772743   9.651929   8.811791
    15  C   11.725414  11.513599  12.416862  10.271685   9.307269
    16  C   12.390259  12.210378  13.087610  11.042506  10.120187
    17  C   12.484966  12.207020  12.986574  11.045213  10.264280
    18  S   11.797243  11.372559  12.075121  10.127096   9.458828
    19  N    8.485699   7.925160   8.664595   6.485412   5.806223
    20  B    9.395892   8.715372   9.336368   7.255405   6.741758
    21  F   10.061827   9.277874   9.769866   7.843594   7.509730
    22  F   10.431654   9.832654  10.520441   8.374489   7.731456
    23  N    8.653272   7.908186   8.462239   6.470330   6.090427
    24  C    9.362540   8.571870   9.032501   7.191098   6.928266
    25  S   11.116285  10.339758  10.796143   8.952878   8.641121
    26  C   11.742468  10.895738  11.209187   9.603332   9.475464
    27  C   12.242965  11.451591  11.775408  10.219091  10.065288
    28  C   12.976711  12.126773  12.327110  10.972570  10.964439
    29  C   13.052490  12.110954  12.207725  10.965814  11.087905
    30  S   12.259359  11.290378  11.427241  10.059296  10.151293
    31  C    8.645847   7.815171   8.186044   6.530264   6.434266
    32  C    7.293753   6.462609   6.880614   5.153478   5.074335
    33  C    7.290131   6.523549   7.077288   5.095990   4.791872
    34  C    4.711282   3.727312   4.114504   2.393584   2.802903
    35  C    3.568510   2.459210   2.726355   1.394348   2.441687
    36  H    2.416833   2.670231   3.897321   2.154711   1.082238
    37  H    4.770728   4.598185   5.668215   3.377855   2.141694
    38  H    6.040541   5.728749   6.621829   4.524993   3.687999
    39  H    8.652038   8.411675   9.300090   7.213053   6.310380
    40  H   11.712769  11.572111  12.540025  10.332710   9.270274
    41  H   12.914099  12.823159  13.742019  11.709436  10.728548
    42  H   13.061131  12.786963  13.525410  11.682151  10.957942
    43  H   12.224848  11.523268  11.939105  10.290595  10.012904
    44  H   13.549982  12.734514  12.925641  11.635292  11.626899
    45  H   13.659316  12.676065  12.678856  11.591267  11.815838
    46  H    9.193203   8.349952   8.635109   7.159281   7.157398
    47  H    6.524230   5.668975   6.023456   4.467656   4.558993
    48  H    5.668527   4.599224   4.773162   3.378134   3.886681
    49  H    3.897965   2.671017   2.418374   2.154939   3.417322
                    6          7          8          9         10
     6  C    0.000000
     7  C    1.406328   0.000000
     8  C    2.511379   1.484235   0.000000
     9  C    3.111119   2.505118   1.404358   0.000000
    10  C    3.225798   3.094206   2.569907   1.416975   0.000000
    11  C    4.559085   4.424973   3.645596   2.263934   1.386432
    12  C    5.129617   4.717868   3.553283   2.222028   2.244883
    13  S    6.856592   6.420562   5.147572   3.917579   3.980565
    14  C    7.612387   7.345646   6.273806   4.907234   4.461826
    15  C    8.168011   8.115184   7.144264   5.757882   5.123064
    16  C    9.077574   9.060028   8.195879   6.791921   5.985488
    17  C    9.244061   9.078005   8.223560   6.842363   6.058546
    18  S    8.353741   7.964411   6.990478   5.668592   5.135230
    19  N    4.449282   3.796192   2.439253   1.400700   2.278376
    20  B    5.393344   4.485730   3.005732   2.612585   3.770368
    21  F    6.231546   5.161918   3.779377   3.385588   4.389953
    22  F    6.352311   5.610656   4.137349   3.656655   4.663989
    23  N    4.821714   3.790932   2.441026   2.832452   4.232708
    24  C    5.755199   4.707014   3.552922   4.158063   5.566989
    25  S    7.419195   6.412949   5.149582   5.464391   6.805009
    26  C    8.390970   7.328498   6.272652   6.859226   8.254103
    27  C    9.041294   8.093909   7.136658   7.801062   9.195201
    28  C   10.034546   9.031995   8.186970   8.954601  10.365976
    29  C   10.179230   9.048321   8.218598   8.994368  10.403738
    30  S    9.156830   7.941773   6.992805   7.646671   9.028535
    31  C    5.449159   4.406830   3.642206   4.642701   6.038168
    32  C    4.136234   3.074346   2.565534   3.797355   5.108632
    33  C    3.606222   2.496504   1.404415   2.434503   3.803045
    34  C    2.427868   1.406402   2.504050   3.616249   4.206903
    35  C    2.803831   2.429025   3.783786   4.807064   5.147804
    36  H    2.156435   3.414753   4.665789   5.159168   4.914634
    37  H    1.083677   2.161622   2.724045   2.956136   2.912270
    38  H    2.770855   2.961347   2.977288   2.226411   1.080186
    39  H    5.274883   5.309544   4.670810   3.315941   2.217911
    40  H    8.121425   8.181683   7.213830   5.873158   5.291889
    41  H    9.743505   9.845707   9.048382   7.647935   6.760588
    42  H   10.007171   9.840868   9.057633   7.697164   6.853594
    43  H    8.974322   8.163133   7.203343   7.819754   9.176988
    44  H   10.749337   9.814625   9.035781   9.843723  11.250730
    45  H   10.971579   9.806951   9.051853   9.870975  11.273893
    46  H    6.284338   5.289068   4.666455   5.712995   7.101132
    47  H    3.876476   2.933678   2.968602   4.339279   5.510284
    48  H    3.410631   2.160481   2.709875   3.831536   4.610277
    49  H    3.885880   3.415143   4.658839   5.708036   6.079248
                   11         12         13         14         15
    11  C    0.000000
    12  C    1.412814   0.000000
    13  S    2.874216   1.769078   0.000000
    14  C    3.101628   2.742657   1.764588   0.000000
    15  C    3.746714   3.682961   2.812977   1.373906   0.000000
    16  C    4.636202   4.807818   4.042063   2.333011   1.424987
    17  C    4.763218   4.923648   4.224185   2.492138   2.328611
    18  S    3.903562   3.761193   3.076375   1.754282   2.587075
    19  N    2.269884   1.354246   2.724905   4.029104   5.006679
    20  B    3.776695   2.609968   3.235077   4.844290   5.937475
    21  F    4.295792   3.161852   3.512908   4.941779   6.208072
    22  F    4.391477   3.059442   3.021611   4.782799   5.741659
    23  N    4.688414   3.802515   4.714180   6.293965   7.320012
    24  C    6.026421   5.073914   5.770396   7.435571   8.462409
    25  S    6.967303   5.775157   5.950961   7.691523   8.720127
    26  C    8.569164   7.445495   7.700622   9.429948  10.479661
    27  C    9.549024   8.450894   8.701953  10.457999  11.422038
    28  C   10.785085   9.710447   9.991374  11.733953  12.745902
    29  C   10.836588   9.770918  10.072965  11.767032  12.876057
    30  S    9.395483   8.313892   8.603768  10.248792  11.416606
    31  C    6.758726   6.021503   6.957632   8.558709   9.551906
    32  C    6.036489   5.561086   6.795168   8.246026   9.195823
    33  C    4.647119   4.157808   5.460572   6.854071   7.812212
    34  C    5.524887   5.790822   7.459677   8.372039   9.238550
    35  C    6.515160   6.969421   8.686894   9.476399  10.261765
    36  H    6.161890   6.986103   8.697336   9.226814   9.577106
    37  H    4.090802   4.690560   6.349825   7.071592   7.495789
    38  H    2.208610   3.295846   4.994004   5.273843   5.800926
    39  H    1.079427   2.222164   3.190785   2.801882   3.155470
    40  H    3.988842   3.890716   3.064247   2.163086   1.083751
    41  H    5.448730   5.727571   4.998758   3.355555   2.218865
    42  H    5.626660   5.879355   5.247951   3.547367   3.376644
    43  H    9.499999   8.414228   8.635647  10.399502  11.261889
    44  H   11.694213  10.636345  10.917696  12.671726  13.640281
    45  H   11.740017  10.697266  11.015655  12.683689  13.826413
    46  H    7.832836   7.076575   7.941668   9.576697  10.566055
    47  H    6.595195   6.310150   7.672167   9.037179   9.941905
    48  H    5.813538   5.885650   7.445613   8.439817   9.429030
    49  H    7.420927   7.841031   9.529124  10.315975  11.157653
                   16         17         18         19         20
    16  C    0.000000
    17  C    1.369397   0.000000
    18  S    2.578249   1.731905   0.000000
    19  N    6.158011   6.224100   4.930392   0.000000
    20  B    7.134823   7.131664   5.670701   1.556123   0.000000
    21  F    7.246181   6.990771   5.361651   2.421304   1.395050
    22  F    7.045637   7.213742   5.867622   2.423353   1.398070
    23  N    8.532551   8.559375   7.119855   2.485075   1.554138
    24  C    9.710789   9.746538   8.270888   3.797410   2.615644
    25  S    9.992932  10.041187   8.549228   4.713112   3.243537
    26  C   11.741271  11.746079  10.210298   6.299653   4.862825
    27  C   12.734639  12.838890  11.361798   7.301236   5.940616
    28  C   14.032902  14.070549  12.542130   8.526629   7.148262
    29  C   14.094473  13.998709  12.394526   8.581183   7.163145
    30  S   12.580776  12.406736  10.770762   7.163444   5.715525
    31  C   10.783049  10.820373   9.367218   4.679295   3.784832
    32  C   10.365709  10.395974   9.012070   4.223528   3.776498
    33  C    8.959904   8.982835   7.619970   2.827891   2.611111
    34  C   10.111149   9.985367   8.784947   4.817634   5.275036
    35  C   11.058066  10.936037   9.839841   6.093661   6.646991
    36  H   10.350314  10.590992   9.939706   6.493805   7.526641
    37  H    8.451747   8.759462   7.985271   4.164653   5.240795
    38  H    6.517638   6.580937   5.818938   3.320093   4.761054
    39  H    3.834688   4.022187   3.508830   3.303376   4.763615
    40  H    2.222876   3.353103   3.633881   5.130892   6.055289
    41  H    1.083668   2.163360   3.623818   7.078734   8.101954
    42  H    2.208881   1.082420   2.457435   7.150626   8.054776
    43  H   12.618684  12.838260  11.447905   7.309449   6.041528
    44  H   14.952152  15.039654  13.538995   9.450663   8.108863
    45  H   15.015095  14.861713  13.227253   9.501759   8.091954
    46  H   11.815176  11.859744  10.391496   5.741676   4.772754
    47  H   11.074818  11.107691   9.772593   5.015757   4.767444
    48  H   10.304068  10.075521   8.743341   4.827688   5.019031
    49  H   11.914021  11.707058  10.562973   6.939656   7.375740
                   21         22         23         24         25
    21  F    0.000000
    22  F    2.287765   0.000000
    23  N    2.423887   2.420449   0.000000
    24  C    3.218617   3.030480   1.354017   0.000000
    25  S    3.571311   2.994114   2.727721   1.769485   0.000000
    26  C    5.037695   4.755768   4.026865   2.740296   1.764763
    27  C    6.290319   5.691610   5.007955   3.682461   2.813216
    28  C    7.349209   7.006347   6.154373   4.804252   4.042467
    29  C    7.117594   7.198295   6.214525   4.916852   4.224713
    30  S    5.498151   5.873515   4.918341   3.753237   3.076527
    31  C    4.375025   4.353911   2.269348   1.413273   2.873138
    32  C    4.453098   4.634280   2.277681   2.245098   3.980193
    33  C    3.397860   3.647556   1.399549   2.221683   3.918643
    34  C    5.687128   6.512595   4.425087   5.130734   6.869453
    35  C    7.061096   7.864954   5.781271   6.418700   8.173789
    36  H    8.371800   8.420837   6.941480   7.789399   9.467104
    37  H    6.229976   6.019144   4.845686   5.840944   7.388785
    38  H    5.348107   5.700211   5.029386   6.322360   7.688045
    39  H    5.193620   5.252954   5.753300   7.084469   7.955135
    40  H    6.540232   5.698440   7.352831   8.447533   8.683447
    41  H    8.285244   7.958810   9.467847  10.646922  10.931982
    42  H    7.809532   8.202615   9.471052  10.664727  10.971689
    43  H    6.597619   5.627599   5.138265   3.893874   3.064908
    44  H    8.382871   7.910075   7.076168   5.724426   4.999174
    45  H    7.946214   8.194037   7.137920   5.870835   5.248290
    46  H    5.289095   5.206411   3.302621   2.222058   3.187415
    47  H    5.423372   5.663702   3.318795   3.296321   4.993341
    48  H    5.215609   6.315618   4.126476   4.710801   6.388739
    49  H    7.650473   8.636037   6.460748   6.982075   8.709099
                   26         27         28         29         30
    26  C    0.000000
    27  C    1.373930   0.000000
    28  C    2.333088   1.425092   0.000000
    29  C    2.492308   2.328772   1.369409   0.000000
    30  S    1.754061   2.586844   2.578041   1.731903   0.000000
    31  C    3.097501   3.740115   4.626998   4.753806   3.897634
    32  C    4.457999   5.115537   5.974822   6.048276   5.130014
    33  C    4.902856   5.755812   6.783994   6.828413   5.654124
    34  C    7.530978   8.317582   9.072495   8.930612   7.861638
    35  C    8.722098   9.421120  10.090883   9.951220   8.996513
    36  H   10.336604  10.862086  11.793453  11.993268  11.101271
    37  H    8.500653   9.111632  10.208226  10.458273   9.435435
    38  H    9.048086   9.952693  11.080583  11.109663   9.776506
    39  H    9.589971  10.568585  11.821101  11.876811  10.418335
    40  H   10.445463  11.284381  12.650188  12.895155  11.524260
    41  H   12.689515  13.639992  14.961590  15.071506  13.585262
    42  H   12.651550  13.780001  14.981798  14.850915  13.226681
    43  H    2.163403   1.083772   2.222736   3.353138   3.633787
    44  H    3.355630   2.218939   1.083691   2.163382   3.623665
    45  H    3.547400   3.376991   2.209323   1.082437   2.457092
    46  H    2.797255   3.143124   3.822736   4.015779   3.509934
    47  H    5.272826   5.789697   6.506825   6.578489   5.827013
    48  H    6.944098   7.815811   8.485543   8.209278   7.081353
    49  H    9.099291   9.798853  10.336837  10.092003   9.185494
                   31         32         33         34         35
    31  C    0.000000
    32  C    1.386033   0.000000
    33  C    2.263552   1.417092   0.000000
    34  C    4.586229   3.248757   3.094501   0.000000
    35  C    5.721655   4.381016   4.419452   1.389537   0.000000
    36  H    7.314852   5.987263   5.693471   3.884982   3.417067
    37  H    5.709918   4.518878   3.827335   3.411256   3.887366
    38  H    6.604461   5.517583   4.350943   3.986395   4.672157
    39  H    7.835487   7.101470   5.719542   6.388235   7.268326
    40  H    9.514972   9.183748   7.845373   9.399967  10.412343
    41  H   11.699081  11.255337   9.857156  10.935105  11.823397
    42  H   11.719982  11.265381   9.855087  10.673002  11.567777
    43  H    3.983293   5.284642   5.877082   8.532886   9.621548
    44  H    5.438282   6.747681   7.640443   9.852114  10.803032
    45  H    5.615915   6.841450   7.679304   9.565717  10.519691
    46  H    1.079395   2.217757   3.315699   5.325747   6.332206
    47  H    2.209199   1.080301   2.225595   2.827914   3.708710
    48  H    4.175463   2.989938   2.936675   1.083844   2.142782
    49  H    6.190842   4.935443   5.137764   2.156410   1.082179
                   36         37         38         39         40
    36  H    0.000000
    37  H    2.479866   0.000000
    38  H    4.132028   2.552657   0.000000
    39  H    6.626654   4.745290   2.692269   0.000000
    40  H    9.466045   7.341733   5.964350   3.474338   0.000000
    41  H   10.864831   9.058726   7.202346   4.564187   2.637113
    42  H   11.274359   9.573228   7.284635   4.843217   4.359684
    43  H   10.730238   8.936293   9.934342  10.494926  11.023385
    44  H   12.414125  10.909177  11.940042  12.729257  13.491460
    45  H   12.743022  11.318098  11.948903  12.782275  13.884356
    46  H    8.016864   6.580722   7.635246   8.908394  10.501730
    47  H    5.469143   4.430082   5.723355   7.627120   9.919889
    48  H    4.968783   4.308469   4.572709   6.728830   9.662427
    49  H    4.302810   4.969426   5.612184   8.168064  11.362168
                   41         42         43         44         45
    41  H    0.000000
    42  H    2.634323   0.000000
    43  H   13.472232  13.819684   0.000000
    44  H   15.858002  15.968531   2.636783   0.000000
    45  H   16.008757  15.682779   4.359946   2.635027   0.000000
    46  H   12.729107  12.762497   3.458621   4.549219   4.837330
    47  H   11.935208  11.950979   5.946382   7.185801   7.282852
    48  H   11.193780  10.746762   8.156759   9.311608   8.789031
    49  H   12.702527  12.291236  10.087762  11.034353  10.560857
                   46         47         48         49
    46  H    0.000000
    47  H    2.693644   0.000000
    48  H    4.881197   2.706751   0.000000
    49  H    6.690916   4.194924   2.481388   0.000000
 Stoichiometry    C23H14BF2N3O2S4
 Framework group  C1[X(C23H14BF2N3O2S4)]
 Deg. of freedom   141
 Full point group                 C1      NOp   1
 Largest Abelian subgroup         C1      NOp   1
 Largest concise Abelian subgroup C1      NOp   1
                         Standard orientation:                         
 ---------------------------------------------------------------------
 Center     Atomic      Atomic             Coordinates (Angstroms)
 Number     Number       Type             X           Y           Z
 ---------------------------------------------------------------------
      1          8           0        0.296060    7.846318   -0.689717
      2          7           0       -0.295524    7.183543    0.168230
      3          8           0       -0.939820    7.693705    1.090240
      4          6           0       -0.229304    5.726224    0.088870
      5          6           0        0.491872    5.140276   -0.950936
      6          6           0        0.555418    3.753843   -1.018448
      7          6           0       -0.100312    2.959902   -0.060620
      8          6           0       -0.038141    1.478872   -0.135715
      9          6           0        1.203253    0.824811   -0.193740
     10          6           0        2.526447    1.331465   -0.210424
     11          6           0        3.390011    0.252265   -0.318954
     12          6           0        2.585217   -0.908638   -0.344537
     13         16           0        3.081281   -2.599515   -0.501035
     14          6           0        4.812254   -2.500189   -0.172953
     15          6           0        5.827705   -2.484186   -1.098275
     16          6           0        7.121927   -2.492484   -0.502029
     17          6           0        7.077245   -2.520386    0.866354
     18         16           0        5.450611   -2.545138    1.460444
     19          7           0        1.275722   -0.572063   -0.267573
     20          5           0        0.070462   -1.522300   -0.010830
     21          9           0        0.117703   -2.016644    1.292841
     22          9           0        0.089498   -2.580656   -0.924131
     23          7           0       -1.207237   -0.662362   -0.219006
     24          6           0       -2.485539   -1.087244   -0.356050
     25         16           0       -2.865987   -2.809115   -0.502667
     26          6           0       -4.612242   -2.811957   -0.247766
     27          6           0       -5.586966   -2.877745   -1.213825
     28          6           0       -6.902478   -2.950706   -0.670693
     29          6           0       -6.914015   -2.945102    0.698656
     30         16           0       -5.315086   -2.859345    1.358626
     31          6           0       -3.364161    0.018736   -0.402652
     32          6           0       -2.578532    1.154919   -0.288800
     33          6           0       -1.229560    0.736286   -0.174031
     34          6           0       -0.825357    3.582517    0.971188
     35          6           0       -0.890512    4.968032    1.054352
     36          1           0        0.985293    5.757242   -1.690616
     37          1           0        1.097005    3.283872   -1.830955
     38          1           0        2.800950    2.375049   -0.161623
     39          1           0        4.467205    0.272236   -0.385418
     40          1           0        5.649539   -2.466125   -2.167128
     41          1           0        8.046341   -2.476691   -1.067313
     42          1           0        7.905849   -2.527232    1.562775
     43          1           0       -5.365854   -2.871761   -2.274785
     44          1           0       -7.801613   -3.002138   -1.273434
     45          1           0       -7.768942   -2.985387    1.361337
     46          1           0       -4.434735   -0.034604   -0.529616
     47          1           0       -2.917019    2.180467   -0.315787
     48          1           0       -1.322454    2.977884    1.720875
     49          1           0       -1.437858    5.453117    1.851984
 ---------------------------------------------------------------------
 Rotational constants (GHZ):           0.0768780           0.0670913           0.0377729
 Leave Link  202 at Fri Nov  7 00:33:25 2025, MaxMem= 30870077440 cpu:               0.3 elap:               0.0
 (Enter /public/software/gauss/g16/l301.exe)
 Standard basis: def2TZVPP (5D, 7F)
 Ernie: Thresh=  0.10000D-02 Tol=  0.10000D-05 Strict=F.
 There are  1518 symmetry adapted cartesian basis functions of A   symmetry.
 There are  1325 symmetry adapted basis functions of A   symmetry.
  1325 basis functions,  2095 primitive gaussians,  1518 cartesian basis functions
   138 alpha electrons      138 beta electrons
       nuclear repulsion energy      4131.1853724050 Hartrees.
 IExCor= 4336 DFT=T Ex+Corr=M062X ExCW=0 ScaHFX=  0.540000
 ScaDFX=  1.000000  1.000000  1.000000  1.000000 ScalE2=  1.000000  1.000000
 IRadAn=      5 IRanWt=     -1 IRanGd=            0 ICorTp=0 IEmpDi=131
 NAtoms=   49 NActive=   49 NUniq=   49 SFac= 1.00D+00 NAtFMM=   60 NAOKFM=F Big=F
 Integral buffers will be    131072 words long.
 Raffenetti 2 integral format.
 Two-electron integral symmetry is turned on.
 R6Disp:  Grimme-D3 Dispersion energy=       -0.0035936786 Hartrees.
 Nuclear repulsion after empirical dispersion term =     4131.1817787263 Hartrees.
 ------------------------------------------------------------------------------
 Polarizable Continuum Model (PCM)
 =================================
 Model                : PCM.
 Atomic radii         : UFF (Universal Force Field).
 Polarization charges : Total charges.
 Charge compensation  : None.
 Solution method      : On-the-fly selection.
 Cavity type          : Scaled VdW (van der Waals Surface) (Alpha=1.100).
 Cavity algorithm     : GePol (No added spheres)
                        Default sphere list used, NSphG=   49.
                        Lebedev-Laikov grids with approx.  5.0 points / Ang**2.
                        Smoothing algorithm: York/Karplus (Gamma=1.0000).
                        Polarization charges: spherical gaussians, with
                                              point-specific exponents (IZeta= 3).
                        Self-potential: point-specific (ISelfS= 7).
                        Self-field    : sphere-specific E.n sum rule (ISelfD= 2).
 Solvent              : Water, Eps=  78.355300 Eps(inf)=   1.777849
 ------------------------------------------------------------------------------
 GePol: Number of generator spheres                  =      49
 GePol: Total number of spheres                      =      49
 GePol: Number of exposed spheres                    =      49 (100.00%)
 GePol: Number of points                             =    4331
 GePol: Average weight of points                     =       0.13
 GePol: Minimum weight of points                     =   0.15D-10
 GePol: Maximum weight of points                     =    0.20577
 GePol: Number of points with low weight             =     238
 GePol: Fraction of low-weight points (<1% of avg)   =       5.50%
 GePol: Cavity surface area                          =    549.195 Ang**2
 GePol: Cavity volume                                =    623.442 Ang**3
 Leave Link  301 at Fri Nov  7 00:33:25 2025, MaxMem= 30870077440 cpu:               4.3 elap:               0.1
 (Enter /public/software/gauss/g16/l302.exe)
 NPDir=0 NMtPBC=     1 NCelOv=     1 NCel=       1 NClECP=     1 NCelD=      1
         NCelK=      1 NCelE2=     1 NClLst=     1 CellRange=     0.0.
 One-electron integrals computed using PRISM.
 One-electron integral symmetry used in STVInt
   1 Symmetry operations used in ECPInt.
 ECPInt:  NShTT=  115921 NPrTT=  354084 LenC2=   79959 LenP2D=  163745.
 LDataN:  DoStor=T MaxTD1= 6 Len=  172
 NBasis=  1325 RedAO= T EigKep=  7.10D-06  NBF=  1325
 NBsUse=  1325 1.00D-06 EigRej= -1.00D+00 NBFU=  1325
 Precomputing XC quadrature grid using
 IXCGrd= 4 IRadAn=           5 IRanWt=          -1 IRanGd=           0 AccXCQ= 0.00D+00.
 Generated NRdTot=       0 NPtTot=           0 NUsed=           0 NTot=          32
 NSgBfM=  1385  1385  1385  1385  1385 MxSgAt=    49 MxSgA2=    49.
 Leave Link  302 at Fri Nov  7 00:33:29 2025, MaxMem= 30870077440 cpu:             267.2 elap:               4.2
 (Enter /public/software/gauss/g16/l303.exe)
 DipDrv:  MaxL=1.
 Leave Link  303 at Fri Nov  7 00:33:29 2025, MaxMem= 30870077440 cpu:              16.6 elap:               0.3
 (Enter /public/software/gauss/g16/l401.exe)
 ExpMin= 6.06D-02 ExpMax= 6.07D+04 ExpMxC= 2.07D+03 IAcc=3 IRadAn=         5 AccDes= 0.00D+00
 Harris functional with IExCor= 1009 and IRadAn=       5 diagonalized for initial guess.
 HarFok:  IExCor= 1009 AccDes= 0.00D+00 IRadAn=         5 IDoV= 1 UseB2=F ITyADJ=14
 ICtDFT=  3500011 ScaDFX=  1.000000  1.000000  1.000000  1.000000
 FoFCou: FMM=F IPFlag=           0 FMFlag=      100000 FMFlg1=           0
         NFxFlg=           0 DoJE=T BraDBF=F KetDBF=T FulRan=T
         wScrn=  0.000000 ICntrl=       500 IOpCl=  0 I1Cent=   200000004 NGrid=           0
         NMat0=    1 NMatS0=      1 NMatT0=    0 NMatD0=    1 NMtDS0=    0 NMtDT0=    0
 Petite list used in FoFCou.
 Harris En= -3015.47515976394    
 JPrj=0 DoOrth=F DoCkMO=F.
 Leave Link  401 at Fri Nov  7 00:33:35 2025, MaxMem= 30870077440 cpu:             348.2 elap:               5.5
 (Enter /public/software/gauss/g16/l502.exe)
 Integral symmetry usage will be decided dynamically.
 Closed shell SCF:
 Using DIIS extrapolation, IDIIS=  1040.
 NGot= 30870077440 LenX= 30865359035 LenY= 30863053193
 Requested convergence on RMS density matrix=1.00D-08 within 128 cycles.
 Requested convergence on MAX density matrix=1.00D-06.
 Requested convergence on             energy=1.00D-06.
 No special actions if energy rises.
 Fock matrices will be formed incrementally for  20 cycles.

 Cycle   1  Pass 1  IDiag  1:
 FoFJK:  IHMeth= 1 ICntrl=       0 DoSepK=F KAlg= 0 I1Cent=           0 FoldK=F
 IRaf= 600000000 NMat=       1 IRICut=       1 DoRegI=T DoRafI=F ISym2E= 0 IDoP0=0 IntGTp=1.
 FoFCou: FMM=F IPFlag=           0 FMFlag=      100000 FMFlg1=           0
         NFxFlg=           0 DoJE=F BraDBF=F KetDBF=F FulRan=T
         wScrn=  0.000000 ICntrl=         0 IOpCl=  0 I1Cent=           0 NGrid=           0
         NMat0=    1 NMatS0=      1 NMatT0=    0 NMatD0=    1 NMtDS0=    0 NMtDT0=    0
 Symmetry not used in FoFCou.
 Inv3:  Mode=1 IEnd=    56272683.
 Iteration    1 A*A^-1 deviation from unit magnitude is 7.33D-15 for   4320.
 Iteration    1 A*A^-1 deviation from orthogonality  is 3.94D-15 for   4330   1136.
 Iteration    1 A^-1*A deviation from unit magnitude is 7.33D-15 for   4320.
 Iteration    1 A^-1*A deviation from orthogonality  is 3.31D-15 for   4311   1037.
 E= -3015.91879325306    
 DIIS: error= 2.50D-02 at cycle   1 NSaved=   1.
 NSaved= 1 IEnMin= 1 EnMin= -3015.91879325306     IErMin= 1 ErrMin= 2.50D-02
 ErrMax= 2.50D-02  0.00D+00 EMaxC= 1.00D-01 BMatC= 1.36D+00 BMatP= 1.36D+00
 IDIUse=3 WtCom= 7.50D-01 WtEn= 2.50D-01
 Coeff-Com:  0.100D+01
 Coeff-En:   0.100D+01
 Coeff:      0.100D+01
 Gap=     0.222 Goal=   None    Shift=    0.000
 GapD=    0.222 DampG=1.000 DampE=0.500 DampFc=0.5000 IDamp=-1.
 Damping current iteration by 5.00D-01
 RMSDP=1.59D-03 MaxDP=2.01D-01              OVMax= 3.33D-01

 Cycle   2  Pass 1  IDiag  1:
 RMSU=  7.94D-04    CP:  9.92D-01
 E= -3016.37819000289     Delta-E=       -0.459396749830 Rises=F Damp=T
 DIIS: error= 5.34D-03 at cycle   2 NSaved=   2.
 NSaved= 2 IEnMin= 2 EnMin= -3016.37819000289     IErMin= 2 ErrMin= 5.34D-03
 ErrMax= 5.34D-03  0.00D+00 EMaxC= 1.00D-01 BMatC= 1.18D-01 BMatP= 1.36D+00
 IDIUse=3 WtCom= 9.47D-01 WtEn= 5.34D-02
 Coeff-Com:  0.175D-01 0.982D+00
 Coeff-En:   0.107D+00 0.893D+00
 Coeff:      0.224D-01 0.978D+00
 Gap=     0.193 Goal=   None    Shift=    0.000
 RMSDP=6.76D-04 MaxDP=4.06D-02 DE=-4.59D-01 OVMax= 2.00D-01

 Cycle   3  Pass 1  IDiag  1:
 RMSU=  6.71D-04    CP:  9.88D-01  1.10D+00
 E= -3016.92995138852     Delta-E=       -0.551761385624 Rises=F Damp=F
 DIIS: error= 7.38D-03 at cycle   3 NSaved=   3.
 NSaved= 3 IEnMin= 3 EnMin= -3016.92995138852     IErMin= 2 ErrMin= 5.34D-03
 ErrMax= 7.38D-03  0.00D+00 EMaxC= 1.00D-01 BMatC= 3.97D-02 BMatP= 1.18D-01
 IDIUse=3 WtCom= 9.26D-01 WtEn= 7.38D-02
 Coeff-Com: -0.691D-01 0.347D+00 0.722D+00
 Coeff-En:   0.000D+00 0.000D+00 0.100D+01
 Coeff:     -0.640D-01 0.322D+00 0.742D+00
 Gap=     0.147 Goal=   None    Shift=    0.000
 RMSDP=1.88D-04 MaxDP=2.97D-02 DE=-5.52D-01 OVMax= 6.21D-02

 Cycle   4  Pass 1  IDiag  1:
 RMSU=  1.86D-04    CP:  9.86D-01  1.12D+00  9.73D-01
 E= -3016.95532718593     Delta-E=       -0.025375797419 Rises=F Damp=F
 DIIS: error= 3.65D-03 at cycle   4 NSaved=   4.
 NSaved= 4 IEnMin= 4 EnMin= -3016.95532718593     IErMin= 4 ErrMin= 3.65D-03
 ErrMax= 3.65D-03  0.00D+00 EMaxC= 1.00D-01 BMatC= 1.14D-02 BMatP= 3.97D-02
 IDIUse=3 WtCom= 9.64D-01 WtEn= 3.65D-02
 Coeff-Com: -0.307D-01 0.852D-01 0.400D+00 0.545D+00
 Coeff-En:   0.000D+00 0.000D+00 0.181D+00 0.819D+00
 Coeff:     -0.296D-01 0.821D-01 0.392D+00 0.555D+00
 Gap=     0.149 Goal=   None    Shift=    0.000
 RMSDP=9.10D-05 MaxDP=1.72D-02 DE=-2.54D-02 OVMax= 1.94D-02

 Cycle   5  Pass 1  IDiag  1:
 RMSU=  7.04D-05    CP:  9.87D-01  1.13D+00  1.01D+00  7.35D-01
 E= -3016.96434259628     Delta-E=       -0.009015410348 Rises=F Damp=F
 DIIS: error= 7.02D-04 at cycle   5 NSaved=   5.
 NSaved= 5 IEnMin= 5 EnMin= -3016.96434259628     IErMin= 5 ErrMin= 7.02D-04
 ErrMax= 7.02D-04  0.00D+00 EMaxC= 1.00D-01 BMatC= 5.66D-04 BMatP= 1.14D-02
 IDIUse=3 WtCom= 9.93D-01 WtEn= 7.02D-03
 Coeff-Com: -0.624D-02 0.858D-02 0.120D+00 0.254D+00 0.623D+00
 Coeff-En:   0.000D+00 0.000D+00 0.000D+00 0.000D+00 0.100D+01
 Coeff:     -0.619D-02 0.851D-02 0.119D+00 0.252D+00 0.626D+00
 Gap=     0.151 Goal=   None    Shift=    0.000
 RMSDP=2.64D-05 MaxDP=2.41D-03 DE=-9.02D-03 OVMax= 8.38D-03

 Cycle   6  Pass 1  IDiag  1:
 RMSU=  2.44D-05    CP:  9.86D-01  1.13D+00  1.01D+00  7.71D-01  9.03D-01
 E= -3016.96491543517     Delta-E=       -0.000572838887 Rises=F Damp=F
 DIIS: error= 1.63D-04 at cycle   6 NSaved=   6.
 NSaved= 6 IEnMin= 6 EnMin= -3016.96491543517     IErMin= 6 ErrMin= 1.63D-04
 ErrMax= 1.63D-04  0.00D+00 EMaxC= 1.00D-01 BMatC= 5.37D-05 BMatP= 5.66D-04
 IDIUse=3 WtCom= 9.98D-01 WtEn= 1.63D-03
 Coeff-Com:  0.146D-02-0.724D-02 0.660D-02 0.468D-01 0.253D+00 0.699D+00
 Coeff-En:   0.000D+00 0.000D+00 0.000D+00 0.000D+00 0.000D+00 0.100D+01
 Coeff:      0.146D-02-0.723D-02 0.659D-02 0.467D-01 0.253D+00 0.700D+00
 Gap=     0.151 Goal=   None    Shift=    0.000
 RMSDP=1.56D-05 MaxDP=2.73D-03 DE=-5.73D-04 OVMax= 2.54D-03

 Cycle   7  Pass 1  IDiag  1:
 RMSU=  1.07D-05    CP:  9.86D-01  1.13D+00  1.02D+00  7.69D-01  1.03D+00
                    CP:  1.03D+00
 E= -3016.96499037477     Delta-E=       -0.000074939599 Rises=F Damp=F
 DIIS: error= 7.31D-05 at cycle   7 NSaved=   7.
 NSaved= 7 IEnMin= 7 EnMin= -3016.96499037477     IErMin= 7 ErrMin= 7.31D-05
 ErrMax= 7.31D-05  0.00D+00 EMaxC= 1.00D-01 BMatC= 1.01D-05 BMatP= 5.37D-05
 IDIUse=1 WtCom= 1.00D+00 WtEn= 0.00D+00
 Coeff-Com:  0.212D-02-0.574D-02-0.192D-01-0.245D-01-0.472D-02 0.304D+00
 Coeff-Com:  0.748D+00
 Coeff:      0.212D-02-0.574D-02-0.192D-01-0.245D-01-0.472D-02 0.304D+00
 Coeff:      0.748D+00
 Gap=     0.152 Goal=   None    Shift=    0.000
 RMSDP=6.13D-06 MaxDP=5.43D-04 DE=-7.49D-05 OVMax= 2.33D-03

 Cycle   8  Pass 1  IDiag  1:
 RMSU=  3.37D-06    CP:  9.86D-01  1.13D+00  1.02D+00  7.81D-01  1.06D+00
                    CP:  1.19D+00  1.01D+00
 E= -3016.96500793174     Delta-E=       -0.000017556969 Rises=F Damp=F
 DIIS: error= 2.84D-05 at cycle   8 NSaved=   8.
 NSaved= 8 IEnMin= 8 EnMin= -3016.96500793174     IErMin= 8 ErrMin= 2.84D-05
 ErrMax= 2.84D-05  0.00D+00 EMaxC= 1.00D-01 BMatC= 2.24D-06 BMatP= 1.01D-05
 IDIUse=1 WtCom= 1.00D+00 WtEn= 0.00D+00
 Coeff-Com:  0.717D-03-0.137D-02-0.895D-02-0.175D-01-0.406D-01 0.134D-01
 Coeff-Com:  0.356D+00 0.699D+00
 Coeff:      0.717D-03-0.137D-02-0.895D-02-0.175D-01-0.406D-01 0.134D-01
 Coeff:      0.356D+00 0.699D+00
 Gap=     0.152 Goal=   None    Shift=    0.000
 RMSDP=2.48D-06 MaxDP=2.78D-04 DE=-1.76D-05 OVMax= 6.29D-04

 Cycle   9  Pass 1  IDiag  1:
 RMSU=  1.23D-06    CP:  9.86D-01  1.13D+00  1.02D+00  7.82D-01  1.08D+00
                    CP:  1.23D+00  1.13D+00  1.10D+00
 E= -3016.96501097724     Delta-E=       -0.000003045501 Rises=F Damp=F
 DIIS: error= 1.34D-05 at cycle   9 NSaved=   9.
 NSaved= 9 IEnMin= 9 EnMin= -3016.96501097724     IErMin= 9 ErrMin= 1.34D-05
 ErrMax= 1.34D-05  0.00D+00 EMaxC= 1.00D-01 BMatC= 2.10D-07 BMatP= 2.24D-06
 IDIUse=1 WtCom= 1.00D+00 WtEn= 0.00D+00
 Coeff-Com:  0.393D-04 0.106D-03-0.101D-02-0.360D-02-0.137D-01-0.364D-01
 Coeff-Com:  0.555D-01 0.273D+00 0.726D+00
 Coeff:      0.393D-04 0.106D-03-0.101D-02-0.360D-02-0.137D-01-0.364D-01
 Coeff:      0.555D-01 0.273D+00 0.726D+00
 Gap=     0.152 Goal=   None    Shift=    0.000
 RMSDP=7.46D-07 MaxDP=6.11D-05 DE=-3.05D-06 OVMax= 2.68D-04

 Cycle  10  Pass 1  IDiag  1:
 RMSU=  4.74D-07    CP:  9.86D-01  1.13D+00  1.02D+00  7.82D-01  1.09D+00
                    CP:  1.24D+00  1.15D+00  1.21D+00  1.13D+00
 E= -3016.96501129616     Delta-E=       -0.000000318921 Rises=F Damp=F
 DIIS: error= 3.81D-06 at cycle  10 NSaved=  10.
 NSaved=10 IEnMin=10 EnMin= -3016.96501129616     IErMin=10 ErrMin= 3.81D-06
 ErrMax= 3.81D-06  0.00D+00 EMaxC= 1.00D-01 BMatC= 3.59D-08 BMatP= 2.10D-07
 IDIUse=1 WtCom= 1.00D+00 WtEn= 0.00D+00
 Coeff-Com: -0.774D-04 0.226D-03 0.915D-03 0.121D-02 0.694D-03-0.190D-01
 Coeff-Com: -0.299D-01-0.110D-01 0.289D+00 0.767D+00
 Coeff:     -0.774D-04 0.226D-03 0.915D-03 0.121D-02 0.694D-03-0.190D-01
 Coeff:     -0.299D-01-0.110D-01 0.289D+00 0.767D+00
 Gap=     0.152 Goal=   None    Shift=    0.000
 RMSDP=3.35D-07 MaxDP=2.89D-05 DE=-3.19D-07 OVMax= 9.17D-05

 Cycle  11  Pass 1  IDiag  1:
 RMSU=  1.69D-07    CP:  9.86D-01  1.13D+00  1.02D+00  7.82D-01  1.09D+00
                    CP:  1.24D+00  1.16D+00  1.26D+00  1.25D+00  1.08D+00
 E= -3016.96501134732     Delta-E=       -0.000000051161 Rises=F Damp=F
 DIIS: error= 1.41D-06 at cycle  11 NSaved=  11.
 NSaved=11 IEnMin=11 EnMin= -3016.96501134732     IErMin=11 ErrMin= 1.41D-06
 ErrMax= 1.41D-06  0.00D+00 EMaxC= 1.00D-01 BMatC= 4.16D-09 BMatP= 3.59D-08
 IDIUse=1 WtCom= 1.00D+00 WtEn= 0.00D+00
 Coeff-Com: -0.329D-04 0.720D-04 0.519D-03 0.986D-03 0.190D-02-0.431D-02
 Coeff-Com: -0.175D-01-0.374D-01 0.431D-01 0.318D+00 0.694D+00
 Coeff:     -0.329D-04 0.720D-04 0.519D-03 0.986D-03 0.190D-02-0.431D-02
 Coeff:     -0.175D-01-0.374D-01 0.431D-01 0.318D+00 0.694D+00
 Gap=     0.152 Goal=   None    Shift=    0.000
 RMSDP=9.81D-08 MaxDP=8.04D-06 DE=-5.12D-08 OVMax= 2.26D-05

 Cycle  12  Pass 1  IDiag  1:
 RMSU=  6.03D-08    CP:  9.86D-01  1.13D+00  1.02D+00  7.82D-01  1.09D+00
                    CP:  1.24D+00  1.16D+00  1.27D+00  1.29D+00  1.18D+00
                    CP:  1.00D+00
 E= -3016.96501135268     Delta-E=       -0.000000005362 Rises=F Damp=F
 DIIS: error= 3.93D-07 at cycle  12 NSaved=  12.
 NSaved=12 IEnMin=12 EnMin= -3016.96501135268     IErMin=12 ErrMin= 3.93D-07
 ErrMax= 3.93D-07  0.00D+00 EMaxC= 1.00D-01 BMatC= 4.39D-10 BMatP= 4.16D-09
 IDIUse=1 WtCom= 1.00D+00 WtEn= 0.00D+00
 Coeff-Com: -0.501D-05 0.562D-05 0.119D-03 0.281D-03 0.694D-03 0.159D-03
 Coeff-Com: -0.386D-02-0.142D-01-0.979D-02 0.436D-01 0.268D+00 0.715D+00
 Coeff:     -0.501D-05 0.562D-05 0.119D-03 0.281D-03 0.694D-03 0.159D-03
 Coeff:     -0.386D-02-0.142D-01-0.979D-02 0.436D-01 0.268D+00 0.715D+00
 Gap=     0.152 Goal=   None    Shift=    0.000
 RMSDP=3.08D-08 MaxDP=5.05D-06 DE=-5.36D-09 OVMax= 1.05D-05

 Cycle  13  Pass 1  IDiag  1:
 RMSU=  2.02D-08    CP:  9.86D-01  1.13D+00  1.02D+00  7.82D-01  1.09D+00
                    CP:  1.24D+00  1.16D+00  1.27D+00  1.30D+00  1.20D+00
                    CP:  1.08D+00  1.01D+00
 E= -3016.96501135337     Delta-E=       -0.000000000688 Rises=F Damp=F
 DIIS: error= 2.06D-07 at cycle  13 NSaved=  13.
 NSaved=13 IEnMin=13 EnMin= -3016.96501135337     IErMin=13 ErrMin= 2.06D-07
 ErrMax= 2.06D-07  0.00D+00 EMaxC= 1.00D-01 BMatC= 8.87D-11 BMatP= 4.39D-10
 IDIUse=1 WtCom= 1.00D+00 WtEn= 0.00D+00
 Coeff-Com:  0.259D-05-0.789D-05-0.243D-04-0.191D-04 0.388D-04 0.753D-03
 Coeff-Com:  0.702D-03-0.126D-02-0.103D-01-0.278D-01 0.146D-01 0.327D+00
 Coeff-Com:  0.696D+00
 Coeff:      0.259D-05-0.789D-05-0.243D-04-0.191D-04 0.388D-04 0.753D-03
 Coeff:      0.702D-03-0.126D-02-0.103D-01-0.278D-01 0.146D-01 0.327D+00
 Coeff:      0.696D+00
 Gap=     0.152 Goal=   None    Shift=    0.000
 RMSDP=1.42D-08 MaxDP=1.15D-06 DE=-6.88D-10 OVMax= 3.41D-06

 Cycle  14  Pass 1  IDiag  1:
 RMSU=  9.05D-09    CP:  9.86D-01  1.13D+00  1.02D+00  7.82D-01  1.09D+00
                    CP:  1.24D+00  1.16D+00  1.27D+00  1.30D+00  1.21D+00
                    CP:  1.11D+00  1.14D+00  1.02D+00
 E= -3016.96501135342     Delta-E=       -0.000000000046 Rises=F Damp=F
 DIIS: error= 6.53D-08 at cycle  14 NSaved=  14.
 NSaved=14 IEnMin=14 EnMin= -3016.96501135342     IErMin=14 ErrMin= 6.53D-08
 ErrMax= 6.53D-08  0.00D+00 EMaxC= 1.00D-01 BMatC= 1.15D-11 BMatP= 8.87D-11
 IDIUse=1 WtCom= 1.00D+00 WtEn= 0.00D+00
 Coeff-Com:  0.196D-05-0.444D-05-0.322D-04-0.579D-04-0.103D-03 0.330D-03
 Coeff-Com:  0.942D-03 0.189D-02-0.254D-02-0.201D-01-0.396D-01 0.393D-01
 Coeff-Com:  0.305D+00 0.715D+00
 Coeff:      0.196D-05-0.444D-05-0.322D-04-0.579D-04-0.103D-03 0.330D-03
 Coeff:      0.942D-03 0.189D-02-0.254D-02-0.201D-01-0.396D-01 0.393D-01
 Coeff:      0.305D+00 0.715D+00
 Gap=     0.152 Goal=   None    Shift=    0.000
 RMSDP=6.02D-09 MaxDP=7.24D-07 DE=-4.64D-11 OVMax= 1.54D-06

 Error on total polarization charges =  0.02339
 SCF Done:  E(RM062X) =  -3016.96501135     A.U. after   14 cycles
            NFock= 14  Conv=0.60D-08     -V/T= 2.0032
 KE= 3.007416758999D+03 PE=-1.537499187721D+04 EE= 5.219428328128D+03
 Leave Link  502 at Fri Nov  7 00:43:10 2025, MaxMem= 30870077440 cpu:           36257.6 elap:             575.7
 (Enter /public/software/gauss/g16/l601.exe)
 Copying SCF densities to generalized density rwf, IOpCl= 0 IROHF=0.

 **********************************************************************

            Population analysis using the SCF density.

 **********************************************************************

 Orbital symmetries:
       Occupied  (A) (A) (A) (A) (A) (A) (A) (A) (A) (A) (A) (A)
                 (A) (A) (A) (A) (A) (A) (A) (A) (A) (A) (A) (A)
                 (A) (A) (A) (A) (A) (A) (A) (A) (A) (A) (A) (A)
                 (A) (A) (A) (A) (A) (A) (A) (A) (A) (A) (A) (A)
                 (A) (A) (A) (A) (A) (A) (A) (A) (A) (A) (A) (A)
                 (A) (A) (A) (A) (A) (A) (A) (A) (A) (A) (A) (A)
                 (A) (A) (A) (A) (A) (A) (A) (A) (A) (A) (A) (A)
                 (A) (A) (A) (A) (A) (A) (A) (A) (A) (A) (A) (A)
                 (A) (A) (A) (A) (A) (A) (A) (A) (A) (A) (A) (A)
                 (A) (A) (A) (A) (A) (A) (A) (A) (A) (A) (A) (A)
                 (A) (A) (A) (A) (A) (A) (A) (A) (A) (A) (A) (A)
                 (A) (A) (A) (A) (A) (A)
       Virtual   (A) (A) (A) (A) (A) (A) (A) (A) (A) (A) (A) (A)
                 (A) (A) (A) (A) (A) (A) (A) (A) (A) (A) (A) (A)
                 (A) (A) (A) (A) (A) (A) (A) (A) (A) (A) (A) (A)
                 (A) (A) (A) (A) (A) (A) (A) (A) (A) (A) (A) (A)
                 (A) (A) (A) (A) (A) (A) (A) (A) (A) (A) (A) (A)
                 (A) (A) (A) (A) (A) (A) (A) (A) (A) (A) (A) (A)
                 (A) (A) (A) (A) (A) (A) (A) (A) (A) (A) (A) (A)
                 (A) (A) (A) (A) (A) (A) (A) (A) (A) (A) (A) (A)
                 (A) (A) (A) (A) (A) (A) (A) (A) (A) (A) (A) (A)
                 (A) (A) (A) (A) (A) (A) (A) (A) (A) (A) (A) (A)
                 (A) (A) (A) (A) (A) (A) (A) (A) (A) (A) (A) (A)
                 (A) (A) (A) (A) (A) (A) (A) (A) (A) (A) (A) (A)
                 (A) (A) (A) (A) (A) (A) (A) (A) (A) (A) (A) (A)
                 (A) (A) (A) (A) (A) (A) (A) (A) (A) (A) (A) (A)
                 (A) (A) (A) (A) (A) (A) (A) (A) (A) (A) (A) (A)
                 (A) (A) (A) (A) (A) (A) (A) (A) (A) (A) (A) (A)
                 (A) (A) (A) (A) (A) (A) (A) (A) (A) (A) (A) (A)
                 (A) (A) (A) (A) (A) (A) (A) (A) (A) (A) (A) (A)
                 (A) (A) (A) (A) (A) (A) (A) (A) (A) (A) (A) (A)
                 (A) (A) (A) (A) (A) (A) (A) (A) (A) (A) (A) (A)
                 (A) (A) (A) (A) (A) (A) (A) (A) (A) (A) (A) (A)
                 (A) (A) (A) (A) (A) (A) (A) (A) (A) (A) (A) (A)
                 (A) (A) (A) (A) (A) (A) (A) (A) (A) (A) (A) (A)
                 (A) (A) (A) (A) (A) (A) (A) (A) (A) (A) (A) (A)
                 (A) (A) (A) (A) (A) (A) (A) (A) (A) (A) (A) (A)
                 (A) (A) (A) (A) (A) (A) (A) (A) (A) (A) (A) (A)
                 (A) (A) (A) (A) (A) (A) (A) (A) (A) (A) (A) (A)
                 (A) (A) (A) (A) (A) (A) (A) (A) (A) (A) (A) (A)
                 (A) (A) (A) (A) (A) (A) (A) (A) (A) (A) (A) (A)
                 (A) (A) (A) (A) (A) (A) (A) (A) (A) (A) (A) (A)
                 (A) (A) (A) (A) (A) (A) (A) (A) (A) (A) (A) (A)
                 (A) (A) (A) (A) (A) (A) (A) (A) (A) (A) (A) (A)
                 (A) (A) (A) (A) (A) (A) (A) (A) (A) (A) (A) (A)
                 (A) (A) (A) (A) (A) (A) (A) (A) (A) (A) (A) (A)
                 (A) (A) (A) (A) (A) (A) (A) (A) (A) (A) (A) (A)
                 (A) (A) (A) (A) (A) (A) (A) (A) (A) (A) (A) (A)
                 (A) (A) (A) (A) (A) (A) (A) (A) (A) (A) (A) (A)
                 (A) (A) (A) (A) (A) (A) (A) (A) (A) (A) (A) (A)
                 (A) (A) (A) (A) (A) (A) (A) (A) (A) (A) (A) (A)
                 (A) (A) (A) (A) (A) (A) (A) (A) (A) (A) (A) (A)
                 (A) (A) (A) (A) (A) (A) (A) (A) (A) (A) (A) (A)
                 (A) (A) (A) (A) (A) (A) (A) (A) (A) (A) (A) (A)
                 (A) (A) (A) (A) (A) (A) (A) (A) (A) (A) (A) (A)
                 (A) (A) (A) (A) (A) (A) (A) (A) (A) (A) (A) (A)
                 (A) (A) (A) (A) (A) (A) (A) (A) (A) (A) (A) (A)
                 (A) (A) (A) (A) (A) (A) (A) (A) (A) (A) (A) (A)
                 (A) (A) (A) (A) (A) (A) (A) (A) (A) (A) (A) (A)
                 (A) (A) (A) (A) (A) (A) (A) (A) (A) (A) (A) (A)
                 (A) (A) (A) (A) (A) (A) (A) (A) (A) (A) (A) (A)
                 (A) (A) (A) (A) (A) (A) (A) (A) (A) (A) (A) (A)
                 (A) (A) (A) (A) (A) (A) (A) (A) (A) (A) (A) (A)
                 (A) (A) (A) (A) (A) (A) (A) (A) (A) (A) (A) (A)
                 (A) (A) (A) (A) (A) (A) (A) (A) (A) (A) (A) (A)
                 (A) (A) (A) (A) (A) (A) (A) (A) (A) (A) (A) (A)
                 (A) (A) (A) (A) (A) (A) (A) (A) (A) (A) (A) (A)
                 (A) (A) (A) (A) (A) (A) (A) (A) (A) (A) (A) (A)
                 (A) (A) (A) (A) (A) (A) (A) (A) (A) (A) (A) (A)
                 (A) (A) (A) (A) (A) (A) (A) (A) (A) (A) (A) (A)
                 (A) (A) (A) (A) (A) (A) (A) (A) (A) (A) (A) (A)
                 (A) (A) (A) (A) (A) (A) (A) (A) (A) (A) (A) (A)
                 (A) (A) (A) (A) (A) (A) (A) (A) (A) (A) (A) (A)
                 (A) (A) (A) (A) (A) (A) (A) (A) (A) (A) (A) (A)
                 (A) (A) (A) (A) (A) (A) (A) (A) (A) (A) (A) (A)
                 (A) (A) (A) (A) (A) (A) (A) (A) (A) (A) (A) (A)
                 (A) (A) (A) (A) (A) (A) (A) (A) (A) (A) (A) (A)
                 (A) (A) (A) (A) (A) (A) (A) (A) (A) (A) (A) (A)
                 (A) (A) (A) (A) (A) (A) (A) (A) (A) (A) (A) (A)
                 (A) (A) (A) (A) (A) (A) (A) (A) (A) (A) (A) (A)
                 (A) (A) (A) (A) (A) (A) (A) (A) (A) (A) (A) (A)
                 (A) (A) (A) (A) (A) (A) (A) (A) (A) (A) (A) (A)
                 (A) (A) (A) (A) (A) (A) (A) (A) (A) (A) (A) (A)
                 (A) (A) (A) (A) (A) (A) (A) (A) (A) (A) (A) (A)
                 (A) (A) (A) (A) (A) (A) (A) (A) (A) (A) (A) (A)
                 (A) (A) (A) (A) (A) (A) (A) (A) (A) (A) (A) (A)
                 (A) (A) (A) (A) (A) (A) (A) (A) (A) (A) (A) (A)
                 (A) (A) (A) (A) (A) (A) (A) (A) (A) (A) (A) (A)
                 (A) (A) (A) (A) (A) (A) (A) (A) (A) (A) (A) (A)
                 (A) (A) (A) (A) (A) (A) (A) (A) (A) (A) (A) (A)
                 (A) (A) (A) (A) (A) (A) (A) (A) (A) (A) (A) (A)
                 (A) (A) (A) (A) (A) (A) (A) (A) (A) (A) (A) (A)
                 (A) (A) (A) (A) (A) (A) (A) (A) (A) (A) (A) (A)
                 (A) (A) (A) (A) (A) (A) (A) (A) (A) (A) (A) (A)
                 (A) (A) (A) (A) (A) (A) (A) (A) (A) (A) (A) (A)
                 (A) (A) (A) (A) (A) (A) (A) (A) (A) (A) (A) (A)
                 (A) (A) (A) (A) (A) (A) (A) (A) (A) (A) (A) (A)
                 (A) (A) (A) (A) (A) (A) (A) (A) (A) (A) (A) (A)
                 (A) (A) (A) (A) (A) (A) (A) (A) (A) (A) (A) (A)
                 (A) (A) (A) (A) (A) (A) (A) (A) (A) (A) (A) (A)
                 (A) (A) (A) (A) (A) (A) (A) (A) (A) (A) (A) (A)
                 (A) (A) (A) (A) (A) (A) (A) (A) (A) (A) (A) (A)
                 (A) (A) (A) (A) (A) (A) (A) (A) (A) (A) (A) (A)
                 (A) (A) (A) (A) (A) (A) (A) (A) (A) (A) (A) (A)
                 (A) (A) (A) (A) (A) (A) (A) (A) (A) (A) (A) (A)
                 (A) (A) (A) (A) (A) (A) (A) (A) (A) (A) (A) (A)
                 (A) (A) (A) (A) (A) (A) (A) (A) (A) (A) (A) (A)
                 (A) (A) (A) (A) (A) (A) (A) (A) (A) (A) (A) (A)
                 (A) (A) (A) (A) (A) (A) (A) (A) (A) (A) (A) (A)
                 (A) (A) (A) (A) (A) (A) (A) (A) (A) (A) (A) (A)
                 (A) (A) (A) (A) (A) (A) (A) (A) (A) (A) (A)
 The electronic state is 1-A.
 Alpha  occ. eigenvalues --  -89.94598 -89.94592 -89.94507 -89.94507 -25.21611
 Alpha  occ. eigenvalues --  -25.21096 -19.68154 -19.68151 -15.01623 -14.79891
 Alpha  occ. eigenvalues --  -14.79840 -10.63618 -10.63601 -10.62357 -10.61619
 Alpha  occ. eigenvalues --  -10.60765 -10.60757 -10.60007 -10.59977 -10.59840
 Alpha  occ. eigenvalues --  -10.58357 -10.58351 -10.58351 -10.58348 -10.57901
 Alpha  occ. eigenvalues --  -10.57882 -10.57078 -10.57049 -10.56471 -10.56468
 Alpha  occ. eigenvalues --  -10.55804 -10.55786 -10.55701 -10.55701  -8.30303
 Alpha  occ. eigenvalues --   -8.30297  -8.30180  -8.30178  -7.14310  -6.22201
 Alpha  occ. eigenvalues --   -6.22196  -6.22152  -6.22150  -6.22018  -6.22012
 Alpha  occ. eigenvalues --   -6.21936  -6.21934  -6.21886  -6.21881  -6.21658
 Alpha  occ. eigenvalues --   -6.21656  -1.37159  -1.33341  -1.30098  -1.18683
 Alpha  occ. eigenvalues --   -1.12226  -1.10379  -1.01465  -0.99699  -0.99658
 Alpha  occ. eigenvalues --   -0.96254  -0.92200  -0.91060  -0.90548  -0.89466
 Alpha  occ. eigenvalues --   -0.88706  -0.88142  -0.83780  -0.83764  -0.83176
 Alpha  occ. eigenvalues --   -0.82232  -0.79513  -0.78218  -0.73893  -0.72983
 Alpha  occ. eigenvalues --   -0.71140  -0.70429  -0.68080  -0.67771  -0.66382
 Alpha  occ. eigenvalues --   -0.66210  -0.64828  -0.64585  -0.63623  -0.63573
 Alpha  occ. eigenvalues --   -0.62638  -0.62154  -0.61630  -0.61407  -0.59958
 Alpha  occ. eigenvalues --   -0.59270  -0.57634  -0.56922  -0.55869  -0.55714
 Alpha  occ. eigenvalues --   -0.55087  -0.54332  -0.53201  -0.52921  -0.52705
 Alpha  occ. eigenvalues --   -0.52115  -0.50956  -0.49904  -0.49077  -0.48841
 Alpha  occ. eigenvalues --   -0.48632  -0.48209  -0.47810  -0.47734  -0.47470
 Alpha  occ. eigenvalues --   -0.47163  -0.46984  -0.46901  -0.46524  -0.46445
 Alpha  occ. eigenvalues --   -0.45866  -0.44742  -0.44544  -0.43986  -0.42070
 Alpha  occ. eigenvalues --   -0.41700  -0.41334  -0.41151  -0.40552  -0.40230
 Alpha  occ. eigenvalues --   -0.39921  -0.39737  -0.35803  -0.34921  -0.34340
 Alpha  occ. eigenvalues --   -0.34295  -0.33210  -0.32062  -0.32017  -0.31438
 Alpha  occ. eigenvalues --   -0.30749  -0.30394  -0.25338
 Alpha virt. eigenvalues --   -0.10168  -0.07013  -0.01563  -0.01510  -0.01057
 Alpha virt. eigenvalues --    0.01988   0.03331   0.03924   0.04732   0.04949
 Alpha virt. eigenvalues --    0.05809   0.05858   0.06770   0.07175   0.07402
 Alpha virt. eigenvalues --    0.08013   0.08183   0.08844   0.09169   0.09468
 Alpha virt. eigenvalues --    0.09579   0.10122   0.10250   0.10548   0.10598
 Alpha virt. eigenvalues --    0.11280   0.11913   0.12412   0.12544   0.12834
 Alpha virt. eigenvalues --    0.12957   0.13334   0.13692   0.13960   0.14472
 Alpha virt. eigenvalues --    0.14649   0.15002   0.15679   0.16162   0.17022
 Alpha virt. eigenvalues --    0.17263   0.17583   0.17906   0.18471   0.18702
 Alpha virt. eigenvalues --    0.19120   0.19329   0.20186   0.20507   0.20775
 Alpha virt. eigenvalues --    0.21121   0.21773   0.22363   0.22548   0.22890
 Alpha virt. eigenvalues --    0.23293   0.23468   0.23732   0.24090   0.24292
 Alpha virt. eigenvalues --    0.24333   0.24470   0.25069   0.25515   0.25549
 Alpha virt. eigenvalues --    0.26020   0.26058   0.26381   0.26564   0.26833
 Alpha virt. eigenvalues --    0.26975   0.27283   0.27499   0.27887   0.28099
 Alpha virt. eigenvalues --    0.28411   0.28930   0.29022   0.29430   0.30059
 Alpha virt. eigenvalues --    0.30239   0.30922   0.31049   0.31188   0.31611
 Alpha virt. eigenvalues --    0.31892   0.32174   0.33175   0.33369   0.33511
 Alpha virt. eigenvalues --    0.34130   0.34216   0.34631   0.34744   0.35115
 Alpha virt. eigenvalues --    0.35214   0.35406   0.35637   0.35926   0.36164
 Alpha virt. eigenvalues --    0.36254   0.36902   0.37145   0.37262   0.37547
 Alpha virt. eigenvalues --    0.37938   0.38040   0.38558   0.38881   0.39253
 Alpha virt. eigenvalues --    0.39479   0.39752   0.40148   0.40313   0.40558
 Alpha virt. eigenvalues --    0.40980   0.41035   0.41528   0.41780   0.42031
 Alpha virt. eigenvalues --    0.42188   0.42545   0.42710   0.43014   0.43151
 Alpha virt. eigenvalues --    0.43335   0.43835   0.44020   0.44155   0.44403
 Alpha virt. eigenvalues --    0.44645   0.44691   0.45102   0.45235   0.45606
 Alpha virt. eigenvalues --    0.46137   0.46349   0.46474   0.46753   0.46798
 Alpha virt. eigenvalues --    0.47755   0.48014   0.48110   0.48609   0.48755
 Alpha virt. eigenvalues --    0.49126   0.49567   0.49729   0.50143   0.50468
 Alpha virt. eigenvalues --    0.50738   0.50909   0.50974   0.51623   0.51764
 Alpha virt. eigenvalues --    0.52349   0.53121   0.53507   0.54029   0.54208
 Alpha virt. eigenvalues --    0.54572   0.55017   0.55156   0.55588   0.55892
 Alpha virt. eigenvalues --    0.56297   0.56645   0.57199   0.57325   0.58040
 Alpha virt. eigenvalues --    0.58121   0.58782   0.59230   0.59472   0.59870
 Alpha virt. eigenvalues --    0.60038   0.60055   0.60848   0.61188   0.61545
 Alpha virt. eigenvalues --    0.61871   0.62090   0.62939   0.63361   0.63519
 Alpha virt. eigenvalues --    0.63937   0.64473   0.64731   0.64937   0.65680
 Alpha virt. eigenvalues --    0.65992   0.66118   0.66553   0.66757   0.67004
 Alpha virt. eigenvalues --    0.67242   0.67620   0.68198   0.68450   0.68807
 Alpha virt. eigenvalues --    0.69009   0.69013   0.69555   0.69971   0.70606
 Alpha virt. eigenvalues --    0.70844   0.71052   0.71230   0.71422   0.71503
 Alpha virt. eigenvalues --    0.71796   0.72256   0.72740   0.73024   0.73500
 Alpha virt. eigenvalues --    0.73829   0.74214   0.74535   0.74880   0.75018
 Alpha virt. eigenvalues --    0.75283   0.75912   0.76340   0.76692   0.77136
 Alpha virt. eigenvalues --    0.77629   0.77678   0.78320   0.78938   0.79865
 Alpha virt. eigenvalues --    0.80016   0.80701   0.80911   0.80997   0.82320
 Alpha virt. eigenvalues --    0.82715   0.82880   0.83891   0.84210   0.84487
 Alpha virt. eigenvalues --    0.85033   0.85346   0.85763   0.86031   0.86196
 Alpha virt. eigenvalues --    0.86660   0.87800   0.88600   0.88871   0.89765
 Alpha virt. eigenvalues --    0.90030   0.90341   0.90467   0.90606   0.91151
 Alpha virt. eigenvalues --    0.91519   0.92289   0.92378   0.92712   0.93828
 Alpha virt. eigenvalues --    0.94078   0.94157   0.94234   0.94973   0.95316
 Alpha virt. eigenvalues --    0.96091   0.96572   0.96926   0.97088   0.97472
 Alpha virt. eigenvalues --    0.97830   0.98200   0.98679   0.99200   0.99726
 Alpha virt. eigenvalues --    0.99809   0.99960   1.00098   1.01314   1.01759
 Alpha virt. eigenvalues --    1.01824   1.02408   1.02687   1.02940   1.03280
 Alpha virt. eigenvalues --    1.03771   1.04263   1.04728   1.05345   1.05636
 Alpha virt. eigenvalues --    1.06141   1.06293   1.06845   1.06955   1.07299
 Alpha virt. eigenvalues --    1.07392   1.07770   1.08154   1.08342   1.08651
 Alpha virt. eigenvalues --    1.09435   1.10893   1.11159   1.11274   1.11874
 Alpha virt. eigenvalues --    1.12325   1.12610   1.13282   1.13913   1.14223
 Alpha virt. eigenvalues --    1.15249   1.15918   1.16195   1.16609   1.17117
 Alpha virt. eigenvalues --    1.17627   1.18040   1.18381   1.19374   1.19603
 Alpha virt. eigenvalues --    1.19994   1.20525   1.20661   1.21049   1.21736
 Alpha virt. eigenvalues --    1.22171   1.22479   1.22835   1.23003   1.23237
 Alpha virt. eigenvalues --    1.23928   1.24409   1.24694   1.25275   1.25671
 Alpha virt. eigenvalues --    1.26001   1.27231   1.27571   1.27980   1.28141
 Alpha virt. eigenvalues --    1.28633   1.28765   1.29576   1.30083   1.30867
 Alpha virt. eigenvalues --    1.31035   1.31493   1.31727   1.32309   1.32623
 Alpha virt. eigenvalues --    1.32823   1.33661   1.34250   1.34732   1.35859
 Alpha virt. eigenvalues --    1.36148   1.36614   1.37630   1.38033   1.38604
 Alpha virt. eigenvalues --    1.38795   1.39316   1.40063   1.40384   1.40769
 Alpha virt. eigenvalues --    1.41143   1.41702   1.42166   1.42304   1.43389
 Alpha virt. eigenvalues --    1.43744   1.44017   1.44313   1.45310   1.45600
 Alpha virt. eigenvalues --    1.46020   1.46320   1.46703   1.47516   1.48025
 Alpha virt. eigenvalues --    1.48804   1.49176   1.49400   1.49743   1.50472
 Alpha virt. eigenvalues --    1.50545   1.50905   1.51067   1.51281   1.51490
 Alpha virt. eigenvalues --    1.52440   1.52727   1.52831   1.52878   1.53054
 Alpha virt. eigenvalues --    1.53532   1.54010   1.54264   1.54714   1.54854
 Alpha virt. eigenvalues --    1.55019   1.55671   1.55705   1.56074   1.56534
 Alpha virt. eigenvalues --    1.56980   1.58128   1.58411   1.58582   1.58790
 Alpha virt. eigenvalues --    1.59470   1.60251   1.60778   1.60827   1.61127
 Alpha virt. eigenvalues --    1.61304   1.61764   1.61943   1.62424   1.63189
 Alpha virt. eigenvalues --    1.63326   1.63820   1.64236   1.64609   1.65164
 Alpha virt. eigenvalues --    1.65747   1.66459   1.66992   1.67256   1.67522
 Alpha virt. eigenvalues --    1.68014   1.68564   1.68919   1.69584   1.69937
 Alpha virt. eigenvalues --    1.70164   1.70585   1.71161   1.71265   1.71732
 Alpha virt. eigenvalues --    1.72031   1.72272   1.72764   1.73450   1.73673
 Alpha virt. eigenvalues --    1.74646   1.75610   1.76096   1.76427   1.76804
 Alpha virt. eigenvalues --    1.77891   1.78037   1.78180   1.78826   1.79529
 Alpha virt. eigenvalues --    1.80154   1.80571   1.80638   1.81104   1.81675
 Alpha virt. eigenvalues --    1.81970   1.82258   1.82608   1.82849   1.83220
 Alpha virt. eigenvalues --    1.83323   1.84117   1.84249   1.84623   1.85662
 Alpha virt. eigenvalues --    1.86021   1.86292   1.87076   1.87866   1.88134
 Alpha virt. eigenvalues --    1.88954   1.89279   1.89462   1.90032   1.90194
 Alpha virt. eigenvalues --    1.90788   1.91255   1.91421   1.91872   1.92349
 Alpha virt. eigenvalues --    1.92655   1.92804   1.93149   1.94670   1.95222
 Alpha virt. eigenvalues --    1.95979   1.96936   1.97252   1.98035   1.99080
 Alpha virt. eigenvalues --    1.99533   1.99816   2.00045   2.00906   2.01650
 Alpha virt. eigenvalues --    2.02303   2.02599   2.03220   2.03848   2.04612
 Alpha virt. eigenvalues --    2.05126   2.05400   2.06109   2.06778   2.06908
 Alpha virt. eigenvalues --    2.07945   2.08624   2.08942   2.09286   2.09380
 Alpha virt. eigenvalues --    2.10019   2.10302   2.10753   2.11488   2.12482
 Alpha virt. eigenvalues --    2.13129   2.13795   2.14751   2.15016   2.15124
 Alpha virt. eigenvalues --    2.15145   2.15925   2.16520   2.16682   2.17057
 Alpha virt. eigenvalues --    2.17552   2.18020   2.18848   2.18929   2.19133
 Alpha virt. eigenvalues --    2.20466   2.21386   2.21603   2.21766   2.22556
 Alpha virt. eigenvalues --    2.22796   2.23928   2.24578   2.26298   2.26383
 Alpha virt. eigenvalues --    2.28323   2.28574   2.29359   2.29634   2.29990
 Alpha virt. eigenvalues --    2.32101   2.32323   2.32859   2.33112   2.33537
 Alpha virt. eigenvalues --    2.33891   2.34813   2.35373   2.37426   2.37749
 Alpha virt. eigenvalues --    2.37816   2.38625   2.38971   2.39550   2.40719
 Alpha virt. eigenvalues --    2.41212   2.41520   2.42297   2.42974   2.44039
 Alpha virt. eigenvalues --    2.46379   2.48551   2.49896   2.50049   2.50970
 Alpha virt. eigenvalues --    2.52472   2.53725   2.54543   2.55139   2.55338
 Alpha virt. eigenvalues --    2.55552   2.56057   2.56663   2.56985   2.58640
 Alpha virt. eigenvalues --    2.58904   2.59427   2.59975   2.60311   2.60867
 Alpha virt. eigenvalues --    2.61547   2.61804   2.62740   2.63409   2.64830
 Alpha virt. eigenvalues --    2.65485   2.65723   2.66100   2.66425   2.66617
 Alpha virt. eigenvalues --    2.66973   2.67378   2.68305   2.68536   2.69476
 Alpha virt. eigenvalues --    2.70047   2.70349   2.70808   2.71324   2.71598
 Alpha virt. eigenvalues --    2.72559   2.73067   2.73341   2.73827   2.73976
 Alpha virt. eigenvalues --    2.74177   2.74774   2.75449   2.75850   2.77462
 Alpha virt. eigenvalues --    2.77640   2.78440   2.78986   2.79014   2.79808
 Alpha virt. eigenvalues --    2.80371   2.80792   2.81303   2.81636   2.82563
 Alpha virt. eigenvalues --    2.83628   2.84066   2.84728   2.85297   2.85570
 Alpha virt. eigenvalues --    2.86348   2.87444   2.87768   2.87937   2.88407
 Alpha virt. eigenvalues --    2.88753   2.89169   2.89226   2.90265   2.90806
 Alpha virt. eigenvalues --    2.91028   2.91238   2.91388   2.91642   2.92205
 Alpha virt. eigenvalues --    2.92519   2.93069   2.93328   2.94108   2.94443
 Alpha virt. eigenvalues --    2.95373   2.95560   2.95803   2.96167   2.96524
 Alpha virt. eigenvalues --    2.96889   2.97100   2.98164   2.98480   2.98657
 Alpha virt. eigenvalues --    2.99285   2.99648   3.00147   3.00601   3.00705
 Alpha virt. eigenvalues --    3.01134   3.01353   3.01742   3.02615   3.02827
 Alpha virt. eigenvalues --    3.03364   3.03694   3.04073   3.04319   3.05222
 Alpha virt. eigenvalues --    3.05377   3.05478   3.06091   3.07087   3.08019
 Alpha virt. eigenvalues --    3.08089   3.08755   3.08887   3.09080   3.09300
 Alpha virt. eigenvalues --    3.10166   3.10525   3.10995   3.11173   3.11683
 Alpha virt. eigenvalues --    3.12086   3.12198   3.12471   3.12948   3.13329
 Alpha virt. eigenvalues --    3.13484   3.13975   3.14222   3.14902   3.14953
 Alpha virt. eigenvalues --    3.15296   3.15498   3.16055   3.16793   3.16826
 Alpha virt. eigenvalues --    3.17255   3.17718   3.17939   3.18634   3.18719
 Alpha virt. eigenvalues --    3.19015   3.19311   3.19456   3.19621   3.19868
 Alpha virt. eigenvalues --    3.20405   3.20951   3.21221   3.21781   3.21996
 Alpha virt. eigenvalues --    3.22563   3.22900   3.23490   3.24038   3.24426
 Alpha virt. eigenvalues --    3.24494   3.24721   3.25297   3.26201   3.26649
 Alpha virt. eigenvalues --    3.27351   3.28152   3.28265   3.29174   3.29267
 Alpha virt. eigenvalues --    3.29844   3.30477   3.30928   3.31095   3.31848
 Alpha virt. eigenvalues --    3.32051   3.32558   3.33051   3.33233   3.33623
 Alpha virt. eigenvalues --    3.33873   3.34548   3.34865   3.35220   3.35877
 Alpha virt. eigenvalues --    3.36008   3.36235   3.37425   3.37790   3.38242
 Alpha virt. eigenvalues --    3.38496   3.39005   3.39714   3.40260   3.40802
 Alpha virt. eigenvalues --    3.41174   3.41298   3.41463   3.41858   3.42339
 Alpha virt. eigenvalues --    3.43284   3.43413   3.43842   3.44413   3.44718
 Alpha virt. eigenvalues --    3.45537   3.45756   3.47162   3.47333   3.48509
 Alpha virt. eigenvalues --    3.49127   3.49176   3.49249   3.49427   3.50409
 Alpha virt. eigenvalues --    3.50596   3.51281   3.51965   3.52243   3.52543
 Alpha virt. eigenvalues --    3.53089   3.53668   3.54332   3.54683   3.55141
 Alpha virt. eigenvalues --    3.56251   3.56488   3.56851   3.57515   3.57949
 Alpha virt. eigenvalues --    3.58781   3.59273   3.60252   3.60352   3.61379
 Alpha virt. eigenvalues --    3.62929   3.63073   3.63748   3.64305   3.64520
 Alpha virt. eigenvalues --    3.64639   3.64786   3.65092   3.65511   3.66299
 Alpha virt. eigenvalues --    3.66779   3.67551   3.68889   3.69630   3.69718
 Alpha virt. eigenvalues --    3.70286   3.70768   3.71077   3.71422   3.71596
 Alpha virt. eigenvalues --    3.72158   3.72340   3.72708   3.73697   3.74206
 Alpha virt. eigenvalues --    3.74872   3.74968   3.75398   3.75636   3.76598
 Alpha virt. eigenvalues --    3.77135   3.77805   3.78427   3.78521   3.79119
 Alpha virt. eigenvalues --    3.79933   3.80293   3.80591   3.81054   3.81605
 Alpha virt. eigenvalues --    3.82475   3.83038   3.83198   3.83467   3.84644
 Alpha virt. eigenvalues --    3.85472   3.85852   3.87190   3.87491   3.88307
 Alpha virt. eigenvalues --    3.89212   3.89678   3.90081   3.91117   3.91594
 Alpha virt. eigenvalues --    3.91840   3.93211   3.93354   3.94069   3.94430
 Alpha virt. eigenvalues --    3.94714   3.95674   3.96504   3.97278   3.97404
 Alpha virt. eigenvalues --    3.97742   3.99159   3.99315   3.99752   4.00626
 Alpha virt. eigenvalues --    4.02172   4.02745   4.03194   4.03258   4.03761
 Alpha virt. eigenvalues --    4.04143   4.04745   4.05366   4.06081   4.07256
 Alpha virt. eigenvalues --    4.08039   4.09071   4.09233   4.10272   4.10924
 Alpha virt. eigenvalues --    4.11150   4.11378   4.12217   4.12743   4.13695
 Alpha virt. eigenvalues --    4.14692   4.15655   4.15852   4.16295   4.16391
[...]
    34  C    0.000013   0.000002  -0.000000  -0.000000   0.000000   0.000001
    35  C    0.000000   0.000000   0.000000  -0.000000   0.000000   0.000000
    36  H   -0.000000   0.000000   0.000000  -0.000000  -0.000000  -0.000000
    37  H    0.000000  -0.000000   0.000000   0.000000   0.000000  -0.000000
    38  H   -0.000000   0.000000  -0.000000   0.000000  -0.000000   0.000000
    39  H    0.000000   0.000000  -0.000000   0.000000  -0.000000  -0.000000
    40  H    0.000000   0.000000  -0.000000  -0.000000   0.000000   0.000000
    41  H   -0.000000  -0.000000   0.000000   0.000000  -0.000000   0.000000
    42  H    0.000000   0.000000  -0.000000  -0.000000   0.000000   0.000000
    43  H   -0.000938  -0.019770   0.404112  -0.014077   0.001070   0.005950
    44  H   -0.000223   0.005765  -0.031158   0.420472  -0.029862   0.007300
    45  H   -0.000107   0.003138   0.003728  -0.022202   0.406486  -0.024941
    46  H   -0.004130   0.001328  -0.002449   0.000235   0.000527   0.000417
    47  H   -0.000164   0.000087   0.000013  -0.000004  -0.000001  -0.000001
    48  H   -0.000003   0.000000   0.000000  -0.000000  -0.000000   0.000000
    49  H   -0.000000  -0.000000   0.000000   0.000000  -0.000000  -0.000000
              31         32         33         34         35         36
     1  O   -0.000000  -0.000000   0.000000  -0.002447   0.017988   0.015805
     2  N   -0.000000  -0.000000   0.000000   0.003601  -0.041019  -0.003947
     3  O    0.000000   0.000000   0.000001  -0.004637   0.027531   0.000725
     4  C   -0.000001   0.000035   0.002446  -0.001089   0.386042  -0.012839
     5  C   -0.000053   0.000600  -0.005457  -0.078980  -0.019906   0.382758
     6  C   -0.000611  -0.000716   0.042359   0.014166  -0.081325  -0.001383
     7  C    0.002560  -0.057358  -0.323685   0.395307  -0.025484   0.001380
     8  C    0.037952  -0.144757  -0.075795  -0.148927   0.020200  -0.000048
     9  C   -0.005765   0.045638   0.082264   0.026908  -0.003572   0.000056
    10  C    0.000057   0.000853   0.040763  -0.000457   0.000423  -0.000070
    11  C   -0.000052   0.000118  -0.001356  -0.000450  -0.000027  -0.000007
    12  C    0.000340  -0.000197  -0.000072   0.000367  -0.000002   0.000001
    13  S    0.000006  -0.000009  -0.000068  -0.000003   0.000000   0.000000
    14  C    0.000000  -0.000000   0.000015  -0.000000  -0.000000   0.000000
    15  C   -0.000000   0.000000  -0.000000  -0.000000  -0.000000  -0.000000
    16  C    0.000000   0.000000   0.000000   0.000000   0.000000  -0.000000
    17  C   -0.000000  -0.000000  -0.000000  -0.000000   0.000000   0.000000
    18  S   -0.000000  -0.000000  -0.000002   0.000000  -0.000000   0.000000
    19  N   -0.000354  -0.001721  -0.040102  -0.000238  -0.000013  -0.000000
    20  B    0.009885  -0.008990  -0.049325  -0.000293  -0.000049  -0.000000
    21  F    0.000706  -0.000545  -0.007322  -0.000000  -0.000000   0.000000
    22  F   -0.000143  -0.000672  -0.006713  -0.000002   0.000000  -0.000000
    23  N   -0.076625  -0.122118   0.334136   0.000925  -0.000037  -0.000000
    24  C    0.443530  -0.004044  -0.132434   0.000353   0.000010  -0.000000
    25  S   -0.068028   0.016921   0.007742   0.000013   0.000000  -0.000000
    26  C   -0.005016   0.001237  -0.000527   0.000002   0.000000   0.000000
    27  C   -0.001183  -0.001514   0.000208  -0.000000   0.000000   0.000000
    28  C   -0.000304   0.000070   0.000026  -0.000000  -0.000000  -0.000000
    29  C   -0.000177  -0.000048  -0.000025   0.000000   0.000000  -0.000000
    30  S    0.001247  -0.001057   0.000109   0.000001   0.000000  -0.000000
    31  C    5.108630   0.423563  -0.093264   0.000051   0.000044   0.000000
    32  C    0.423563   5.124618   0.506161  -0.001310  -0.000901   0.000010
    33  C   -0.093264   0.506161   5.655877   0.028428   0.003486  -0.000033
    34  C    0.000051  -0.001310   0.028428   5.130311   0.421758   0.000600
    35  C    0.000044  -0.000901   0.003486   0.421758   5.002100   0.001014
    36  H    0.000000   0.000010  -0.000033   0.000600   0.001014   0.419324
    37  H   -0.000016   0.000248   0.002003   0.003991  -0.001012  -0.001256
    38  H    0.000002  -0.000041   0.000012  -0.000047  -0.000104  -0.000002
    39  H   -0.000000  -0.000000   0.000058   0.000002  -0.000000  -0.000000
    40  H    0.000000   0.000000   0.000000   0.000000  -0.000000  -0.000000
    41  H    0.000000   0.000000   0.000000  -0.000000   0.000000   0.000000
    42  H    0.000000   0.000000  -0.000000   0.000000  -0.000000  -0.000000
    43  H   -0.000149  -0.000122   0.000019  -0.000000  -0.000000   0.000000
    44  H   -0.000025   0.000001  -0.000000   0.000000   0.000000  -0.000000
    45  H    0.000004  -0.000003   0.000001  -0.000000  -0.000000   0.000000
    46  H    0.401415   0.002883   0.000216   0.000035   0.000002   0.000000
    47  H    0.012686   0.373313  -0.012319   0.001076  -0.001103  -0.000001
    48  H    0.000267  -0.003558   0.006713   0.409492  -0.010965   0.000028
    49  H   -0.000007  -0.000079   0.000024  -0.001855   0.383337  -0.000224
              37         38         39         40         41         42
     1  O   -0.000121   0.000001   0.000000   0.000000  -0.000000   0.000000
     2  N   -0.000089  -0.000000   0.000000   0.000000  -0.000000   0.000000
     3  O   -0.000000   0.000000  -0.000000   0.000000   0.000000   0.000000
     4  C    0.003809   0.000460   0.000001   0.000000  -0.000000   0.000000
     5  C   -0.008882  -0.000910   0.000002   0.000000  -0.000000   0.000000
     6  C    0.408634   0.001075   0.000058   0.000000  -0.000000   0.000000
     7  C   -0.034442  -0.000869   0.000018  -0.000000   0.000000  -0.000000
     8  C    0.000429   0.007553  -0.000237   0.000001  -0.000000   0.000000
     9  C    0.003740  -0.012538   0.000319   0.000008  -0.000000   0.000000
    10  C   -0.002832   0.370242   0.002474  -0.000085   0.000000  -0.000002
    11  C    0.000153   0.012980   0.400490  -0.000179  -0.000020   0.000003
    12  C    0.000115  -0.002041  -0.023332   0.000159   0.000011   0.000008
    13  S   -0.000001  -0.000145  -0.004024  -0.000940  -0.000223  -0.000108
    14  C    0.000000   0.000065   0.001036  -0.019925   0.005739   0.003131
    15  C    0.000000   0.000008  -0.002554   0.404054  -0.031057   0.003690
    16  C   -0.000000  -0.000002   0.000348  -0.014034   0.420393  -0.022244
    17  C   -0.000000  -0.000001   0.000537   0.001077  -0.029811   0.406453
    18  S   -0.000000  -0.000002   0.000401   0.005974   0.007298  -0.024980
    19  N   -0.000018   0.002807   0.003133  -0.000008  -0.000000   0.000000
    20  B    0.000022   0.000263   0.000306   0.000007  -0.000001   0.000000
    21  F   -0.000000   0.000005   0.000017  -0.000000  -0.000000  -0.000000
    22  F    0.000000   0.000002  -0.000006   0.000001  -0.000000   0.000000
    23  N   -0.000033   0.000039   0.000005  -0.000000  -0.000000   0.000000
    24  C   -0.000005   0.000001   0.000001   0.000000  -0.000000   0.000000
    25  S    0.000000  -0.000000   0.000000   0.000000  -0.000000   0.000000
    26  C   -0.000000   0.000000   0.000000   0.000000  -0.000000   0.000000
    27  C    0.000000  -0.000000  -0.000000  -0.000000   0.000000  -0.000000
    28  C    0.000000   0.000000   0.000000  -0.000000   0.000000  -0.000000
    29  C    0.000000  -0.000000  -0.000000   0.000000  -0.000000   0.000000
    30  S   -0.000000   0.000000  -0.000000   0.000000   0.000000   0.000000
    31  C   -0.000016   0.000002  -0.000000   0.000000   0.000000   0.000000
    32  C    0.000248  -0.000041  -0.000000   0.000000   0.000000   0.000000
    33  C    0.002003   0.000012   0.000058   0.000000   0.000000  -0.000000
    34  C    0.003991  -0.000047   0.000002   0.000000  -0.000000   0.000000
    35  C   -0.001012  -0.000104  -0.000000  -0.000000   0.000000  -0.000000
    36  H   -0.001256  -0.000002  -0.000000  -0.000000   0.000000  -0.000000
    37  H    0.429351  -0.001827  -0.000002   0.000000   0.000000   0.000000
    38  H   -0.001827   0.411954   0.000605   0.000001   0.000000  -0.000000
    39  H   -0.000002   0.000605   0.436480   0.000138  -0.000006   0.000000
    40  H    0.000000   0.000001   0.000138   0.450890   0.000681  -0.000099
    41  H    0.000000   0.000000  -0.000006   0.000681   0.460440  -0.002091
    42  H    0.000000  -0.000000   0.000000  -0.000099  -0.002091   0.451908
    43  H   -0.000000   0.000000  -0.000000  -0.000000  -0.000000   0.000000
    44  H   -0.000000   0.000000   0.000000  -0.000000  -0.000000   0.000000
    45  H    0.000000   0.000000   0.000000   0.000000  -0.000000   0.000000
    46  H   -0.000000   0.000000  -0.000000   0.000000   0.000000   0.000000
    47  H    0.000026  -0.000002   0.000000   0.000000   0.000000   0.000000
    48  H   -0.000171   0.000040  -0.000000   0.000000  -0.000000   0.000000
    49  H    0.000030  -0.000001   0.000000  -0.000000   0.000000  -0.000000
              43         44         45         46         47         48
     1  O    0.000000   0.000000   0.000000  -0.000000   0.000000  -0.000000
     2  N   -0.000000   0.000000  -0.000000   0.000000  -0.000001  -0.000090
     3  O   -0.000000   0.000000  -0.000000   0.000000   0.000001  -0.000119
     4  C   -0.000000  -0.000000   0.000000   0.000000   0.000520   0.004507
     5  C    0.000000   0.000000  -0.000000  -0.000000  -0.000037  -0.001285
     6  C   -0.000000   0.000000  -0.000000   0.000001   0.000246   0.004884
     7  C    0.000000  -0.000000   0.000000   0.000094  -0.001767  -0.033255
     8  C    0.000003  -0.000000   0.000000  -0.000338   0.003056  -0.004750
     9  C   -0.000000   0.000000  -0.000000   0.000026   0.000495   0.002238
    10  C   -0.000000   0.000000  -0.000000  -0.000000  -0.000023   0.000222
    11  C    0.000000   0.000000   0.000000  -0.000000   0.000001  -0.000019
    12  C    0.000000  -0.000000   0.000000   0.000001   0.000002   0.000003
    13  S    0.000000  -0.000000   0.000000   0.000000  -0.000000   0.000000
    14  C   -0.000000  -0.000000   0.000000   0.000000   0.000000   0.000000
    15  C   -0.000000   0.000000  -0.000000  -0.000000  -0.000000   0.000000
    16  C   -0.000000   0.000000  -0.000000   0.000000   0.000000  -0.000000
    17  C    0.000000  -0.000000   0.000000  -0.000000  -0.000000   0.000000
    18  S    0.000000   0.000000   0.000000  -0.000000  -0.000000   0.000000
    19  N    0.000000  -0.000000   0.000000   0.000004   0.000029  -0.000008
    20  B    0.000008  -0.000001   0.000000   0.000345   0.000304   0.000038
    21  F   -0.000000  -0.000000  -0.000000   0.000013   0.000000   0.000000
    22  F    0.000001  -0.000000   0.000000  -0.000005   0.000002  -0.000000
    23  N   -0.000007  -0.000000   0.000000   0.003298   0.003172   0.000175
    24  C    0.000230   0.000012   0.000007  -0.024013  -0.001491   0.000086
    25  S   -0.000938  -0.000223  -0.000107  -0.004130  -0.000164  -0.000003
    26  C   -0.019770   0.005765   0.003138   0.001328   0.000087   0.000000
    27  C    0.404112  -0.031158   0.003728  -0.002449   0.000013   0.000000
    28  C   -0.014077   0.420472  -0.022202   0.000235  -0.000004  -0.000000
    29  C    0.001070  -0.029862   0.406486   0.000527  -0.000001  -0.000000
    30  S    0.005950   0.007300  -0.024941   0.000417  -0.000001   0.000000
    31  C   -0.000149  -0.000025   0.000004   0.401415   0.012686   0.000267
    32  C   -0.000122   0.000001  -0.000003   0.002883   0.373313  -0.003558
    33  C    0.000019  -0.000000   0.000001   0.000216  -0.012319   0.006713
    34  C   -0.000000   0.000000  -0.000000   0.000035   0.001076   0.409492
    35  C   -0.000000   0.000000  -0.000000   0.000002  -0.001103  -0.010965
    36  H    0.000000  -0.000000   0.000000   0.000000  -0.000001   0.000028
    37  H   -0.000000  -0.000000   0.000000  -0.000000   0.000026  -0.000171
    38  H    0.000000   0.000000   0.000000   0.000000  -0.000002   0.000040
    39  H   -0.000000   0.000000   0.000000  -0.000000   0.000000  -0.000000
    40  H   -0.000000  -0.000000   0.000000   0.000000   0.000000   0.000000
    41  H   -0.000000  -0.000000  -0.000000   0.000000   0.000000  -0.000000
    42  H    0.000000   0.000000   0.000000   0.000000   0.000000   0.000000
    43  H    0.450494   0.000665  -0.000100   0.000121   0.000001   0.000000
    44  H    0.000665   0.460490  -0.002098  -0.000005   0.000000  -0.000000
    45  H   -0.000100  -0.002098   0.451682  -0.000002  -0.000000   0.000000
    46  H    0.000121  -0.000005  -0.000002   0.436201   0.000614  -0.000001
    47  H    0.000001   0.000000  -0.000000   0.000614   0.416883  -0.000372
    48  H    0.000000  -0.000000   0.000000  -0.000001  -0.000372   0.429771
    49  H    0.000000  -0.000000   0.000000   0.000000  -0.000011  -0.001426
              49
     1  O    0.000724
     2  N   -0.003938
     3  O    0.015834
     4  C   -0.013411
     5  C    0.001117
     6  C    0.000500
     7  C    0.001568
     8  C    0.000011
     9  C   -0.000024
    10  C    0.000006
    11  C    0.000000
    12  C   -0.000000
    13  S   -0.000000
    14  C    0.000000
    15  C   -0.000000
    16  C    0.000000
    17  C   -0.000000
    18  S   -0.000000
    19  N   -0.000000
    20  B    0.000000
    21  F   -0.000000
    22  F    0.000000
    23  N   -0.000000
    24  C    0.000001
    25  S   -0.000000
    26  C   -0.000000
    27  C    0.000000
    28  C    0.000000
    29  C   -0.000000
    30  S   -0.000000
    31  C   -0.000007
    32  C   -0.000079
    33  C    0.000024
    34  C   -0.001855
    35  C    0.383337
    36  H   -0.000224
    37  H    0.000030
    38  H   -0.000001
    39  H    0.000000
    40  H   -0.000000
    41  H    0.000000
    42  H   -0.000000
    43  H    0.000000
    44  H   -0.000000
    45  H    0.000000
    46  H    0.000000
    47  H   -0.000011
    48  H   -0.001426
    49  H    0.419653
 Mulliken charges:
               1
     1  O   -0.364990
     2  N    0.491205
     3  O   -0.364912
     4  C   -0.024259
     5  C   -0.082936
     6  C   -0.195222
     7  C   -0.055107
     8  C    0.189849
     9  C    0.086673
    10  C   -0.174776
    11  C   -0.180681
    12  C    0.017482
    13  S    0.043974
    14  C   -0.127493
    15  C   -0.087650
    16  C   -0.185202
    17  C   -0.163929
    18  S    0.108287
    19  N   -0.117041
    20  B    0.310120
    21  F   -0.328527
    22  F   -0.343492
    23  N   -0.102423
    24  C    0.016572
    25  S    0.043537
    26  C   -0.125399
    27  C   -0.090066
    28  C   -0.184598
    29  C   -0.164477
    30  S    0.107894
    31  C   -0.191173
    32  C   -0.146508
    33  C    0.035431
    34  C   -0.196649
    35  C   -0.078420
    36  H    0.198111
    37  H    0.198156
    38  H    0.210420
    39  H    0.183734
    40  H    0.172279
    41  H    0.168649
    42  H    0.184330
    43  H    0.172488
    44  H    0.168667
    45  H    0.184406
    46  H    0.183166
    47  H    0.204770
    48  H    0.197555
    49  H    0.198173
 Sum of Mulliken charges =  -0.00000
 Mulliken charges with hydrogens summed into heavy atoms:
               1
     1  O   -0.364990
     2  N    0.491205
     3  O   -0.364912
     4  C   -0.024259
     5  C    0.115175
     6  C    0.002934
     7  C   -0.055107
     8  C    0.189849
     9  C    0.086673
    10  C    0.035644
    11  C    0.003053
    12  C    0.017482
    13  S    0.043974
    14  C   -0.127493
    15  C    0.084629
    16  C   -0.016552
    17  C    0.020401
    18  S    0.108287
    19  N   -0.117041
    20  B    0.310120
    21  F   -0.328527
    22  F   -0.343492
    23  N   -0.102423
    24  C    0.016572
    25  S    0.043537
    26  C   -0.125399
    27  C    0.082422
    28  C   -0.015931
    29  C    0.019930
    30  S    0.107894
    31  C   -0.008007
    32  C    0.058262
    33  C    0.035431
    34  C    0.000906
    35  C    0.119753
 Electronic spatial extent (au):  <R**2>=          25958.3383
 Charge=             -0.0000 electrons
 Dipole moment (field-independent basis, Debye):
    X=              0.0336    Y=              0.6584    Z=             -1.9375  Tot=              2.0466
 Quadrupole moment (field-independent basis, Debye-Ang):
   XX=           -138.4375   YY=           -293.2452   ZZ=           -222.0107
   XY=              5.8545   XZ=             -1.8094   YZ=             -0.6526
 Traceless Quadrupole moment (field-independent basis, Debye-Ang):
   XX=             79.4603   YY=            -75.3474   ZZ=             -4.1130
   XY=              5.8545   XZ=             -1.8094   YZ=             -0.6526
 Octapole moment (field-independent basis, Debye-Ang**2):
  XXX=             20.2587  YYY=           -522.0891  ZZZ=              2.9254  XYY=             12.9377
  XXY=           -173.3793  XXZ=             -2.6732  XZZ=              0.4035  YZZ=              1.5564
  YYZ=            -24.2507  XYZ=             -8.3551
 Hexadecapole moment (field-independent basis, Debye-Ang**3):
 XXXX=         -13564.0380 YYYY=         -21016.0639 ZZZZ=          -1098.5848 XXXY=            108.9256
 XXXZ=             44.2697 YYYX=            258.0120 YYYZ=           -163.1038 ZZZX=            -12.4285
 ZZZY=              8.5311 XXYY=          -5331.2789 XXZZ=          -2975.4480 YYZZ=          -2694.7501
 XXYZ=            -23.5084 YYXZ=             32.0621 ZZXY=             10.1465
 N-N= 4.131181778726D+03 E-N=-1.537499187143D+04  KE= 3.007416758999D+03
 No NMR shielding tensors so no spin-rotation constants.
 Leave Link  601 at Fri Nov  7 00:43:13 2025, MaxMem= 30870077440 cpu:             122.0 elap:               2.2
 (Enter /public/software/gauss/g16/l9999.exe)
 1\1\GINC-CU015\SP\RM062X\def2TZVPP\C23H14B1F2N3O2S4\BAIDING\07-Nov-202
 5\0\\#p M062X/DEF2TZVPP scrf=(solvent=water) em=GD3\\Energy calculatio
 n for M100034833\\0,1\O,0,-0.296061,7.846318,0.689717\N,0,0.295523,7.1
 83543,-0.16823\O,0,0.939819,7.693705,-1.09024\C,0,0.229304,5.726224,-0
 .08887\C,0,-0.491872,5.140276,0.950936\C,0,-0.555418,3.753843,1.018448
 \C,0,0.100312,2.959902,0.06062\C,0,0.038141,1.478872,0.135715\C,0,-1.2
 03253,0.824811,0.19374\C,0,-2.526447,1.331465,0.210424\C,0,-3.390011,0
 .252265,0.318954\C,0,-2.585217,-0.908638,0.344537\S,0,-3.081281,-2.599
 515,0.501035\C,0,-4.812254,-2.500189,0.172953\C,0,-5.827705,-2.484187,
 1.098275\C,0,-7.121927,-2.492485,0.502029\C,0,-7.077245,-2.520387,-0.8
 66354\S,0,-5.450611,-2.545138,-1.460444\N,0,-1.275722,-0.572063,0.2675
 73\B,0,-0.070462,-1.5223,0.01083\F,0,-0.117703,-2.016644,-1.292841\F,0
 ,-0.089498,-2.580656,0.924131\N,0,1.207237,-0.662362,0.219006\C,0,2.48
 5539,-1.087244,0.35605\S,0,2.865987,-2.809115,0.502667\C,0,4.612242,-2
 .811956,0.247766\C,0,5.586966,-2.877744,1.213825\C,0,6.902478,-2.95070
 5,0.670693\C,0,6.914015,-2.945101,-0.698656\S,0,5.315086,-2.859344,-1.
 358626\C,0,3.364161,0.018736,0.402652\C,0,2.578532,1.154919,0.2888\C,0
 ,1.22956,0.736286,0.174031\C,0,0.825357,3.582517,-0.971188\C,0,0.89051
 2,4.968032,-1.054352\H,0,-0.985294,5.757242,1.690616\H,0,-1.097005,3.2
 83872,1.830955\H,0,-2.80095,2.375049,0.161623\H,0,-4.467205,0.272236,0
 .385418\H,0,-5.649539,-2.466125,2.167128\H,0,-8.046341,-2.476692,1.067
 313\H,0,-7.905849,-2.527233,-1.562775\H,0,5.365854,-2.87176,2.274785\H
 ,0,7.801613,-3.002137,1.273434\H,0,7.768942,-2.985386,-1.361337\H,0,4.
 434735,-0.034603,0.529616\H,0,2.917019,2.180467,0.315787\H,0,1.322454,
 2.977884,-1.720875\H,0,1.437858,5.453117,-1.851984\\Version=ES64L-G16R
 evA.03\State=1-A\HF=-3016.9650114\RMSD=6.022e-09\Dipole=-0.0132041,0.2
 59028,0.7622585\Quadrupole=59.0768068,-56.0189249,-3.0578819,-4.352692
 6,-1.3452091,0.4851698\PG=C01 [X(C23H14B1F2N3O2S4)]\\@


 Children are likely to live up to what you believe of them.
 -- Lady Bird Johnson
 Job cpu time:       0 days 10 hours 17 minutes 25.4 seconds.
 Elapsed time:       0 days  0 hours  9 minutes 48.5 seconds.
 File lengths (MBytes):  RWF=   1222 Int=      0 D2E=      0 Chk=    103 Scr=      1
 Normal termination of Gaussian 16 at Fri Nov  7 00:43:13 2025.
