 Entering Gaussian System, Link 0=g16
 Input=M100033023_reduced_sp.gjf
 Output=M100033023_reduced_sp.log
 Initial command:
 /public/software/gauss/g16/l1.exe "/public/home/baiding/1101_v2_sp/tmp_M100033023_reduced_sp_1568608/Gau-4138618.inp" -scrdir="/public/home/baiding/1101_v2_sp/tmp_M100033023_reduced_sp_1568608/"
 Entering Link 1 = /public/software/gauss/g16/l1.exe PID=   4138619.
  
 Copyright (c) 1988,1990,1992,1993,1995,1998,2003,2009,2016,
            Gaussian, Inc.  All Rights Reserved.
  
 This is part of the Gaussian(R) 16 program.  It is based on
 the Gaussian(R) 09 system (copyright 2009, Gaussian, Inc.),
 the Gaussian(R) 03 system (copyright 2003, Gaussian, Inc.),
 the Gaussian(R) 98 system (copyright 1998, Gaussian, Inc.),
 the Gaussian(R) 94 system (copyright 1995, Gaussian, Inc.),
 the Gaussian 92(TM) system (copyright 1992, Gaussian, Inc.),
 the Gaussian 90(TM) system (copyright 1990, Gaussian, Inc.),
 the Gaussian 88(TM) system (copyright 1988, Gaussian, Inc.),
 the Gaussian 86(TM) system (copyright 1986, Carnegie Mellon
 University), and the Gaussian 82(TM) system (copyright 1983,
 Carnegie Mellon University). Gaussian is a federally registered
 trademark of Gaussian, Inc.
  
 This software contains proprietary and confidential information,
 including trade secrets, belonging to Gaussian, Inc.
  
 This software is provided under written license and may be
 used, copied, transmitted, or stored only in accord with that
 written license.
  
 The following legend is applicable only to US Government
 contracts under FAR:
  
                    RESTRICTED RIGHTS LEGEND
  
 Use, reproduction and disclosure by the US Government is
 subject to restrictions as set forth in subparagraphs (a)
 and (c) of the Commercial Computer Software - Restricted
 Rights clause in FAR 52.227-19.
  
 Gaussian, Inc.
 340 Quinnipiac St., Bldg. 40, Wallingford CT 06492
  
  
 ---------------------------------------------------------------
 Warning -- This program may not be used in any manner that
 competes with the business of Gaussian, Inc. or will provide
 assistance to any competitor of Gaussian, Inc.  The licensee
 of this program is prohibited from giving any competitor of
 Gaussian, Inc. access to this program.  By using this program,
 the user acknowledges that Gaussian, Inc. is engaged in the
 business of creating and licensing software in the field of
 computational chemistry and represents and warrants to the
 licensee that it is not a competitor of Gaussian, Inc. and that
 it will not use this program in any manner prohibited above.
 ---------------------------------------------------------------
  

 Cite this work as:
 Gaussian 16, Revision A.03,
 M. J. Frisch, G. W. Trucks, H. B. Schlegel, G. E. Scuseria, 
 M. A. Robb, J. R. Cheeseman, G. Scalmani, V. Barone, 
 G. A. Petersson, H. Nakatsuji, X. Li, M. Caricato, A. V. Marenich, 
 J. Bloino, B. G. Janesko, R. Gomperts, B. Mennucci, H. P. Hratchian, 
 J. V. Ortiz, A. F. Izmaylov, J. L. Sonnenberg, D. Williams-Young, 
 F. Ding, F. Lipparini, F. Egidi, J. Goings, B. Peng, A. Petrone, 
 T. Henderson, D. Ranasinghe, V. G. Zakrzewski, J. Gao, N. Rega, 
 G. Zheng, W. Liang, M. Hada, M. Ehara, K. Toyota, R. Fukuda, 
 J. Hasegawa, M. Ishida, T. Nakajima, Y. Honda, O. Kitao, H. Nakai, 
 T. Vreven, K. Throssell, J. A. Montgomery, Jr., J. E. Peralta, 
 F. Ogliaro, M. J. Bearpark, J. J. Heyd, E. N. Brothers, K. N. Kudin, 
 V. N. Staroverov, T. A. Keith, R. Kobayashi, J. Normand, 
 K. Raghavachari, A. P. Rendell, J. C. Burant, S. S. Iyengar, 
 J. Tomasi, M. Cossi, J. M. Millam, M. Klene, C. Adamo, R. Cammi, 
 J. W. Ochterski, R. L. Martin, K. Morokuma, O. Farkas, 
 J. B. Foresman, and D. J. Fox, Gaussian, Inc., Wallingford CT, 2016.
 
 ******************************************
 Gaussian 16:  ES64L-G16RevA.03 25-Dec-2016
                 6-Nov-2025 
 ******************************************
 %nprocshared=64
 Will use up to   64 processors via shared memory.
 %mem=230GB
 %chk=M100033023_reduced_sp.chk
 ----------------------------------------------
 #p M062X/DEF2TZVPP scrf=(solvent=water) em=GD3
 ----------------------------------------------
 1/38=1,172=1/1;
 2/12=2,17=6,18=5,40=1/2;
 3/5=44,7=202,11=2,25=1,30=1,70=2201,72=1,74=-55,124=31/1,2,3;
 4//1;
 5/5=2,38=5,53=1/2;
 6/7=2,8=2,9=2,10=2,28=1/1;
 99/5=1,9=1/99;
 Leave Link    1 at Thu Nov  6 08:39:15 2025, MaxMem= 30870077440 cpu:              11.5 elap:               0.2
 (Enter /public/software/gauss/g16/l101.exe)
 -----------------------------------------
 Energy calculation for M100033023_reduced
 -----------------------------------------
 Symbolic Z-matrix:
 Charge = -1 Multiplicity = 2
 C                    -6.91134   3.63903   0.07712 
 C                    -6.36702   2.32843  -0.51424 
 C                    -4.95298   2.01325  -0.11403 
 C                    -4.50306   1.03176   0.731 
 C                    -3.09387   1.03023   0.93389 
 C                    -2.42538   2.02007   0.24273 
 C                    -1.0092    2.35058   0.17141 
 N                     0.01623   1.40373   0.12853 
 C                     1.22867   2.08272   0.03285 
 C                     2.47227   1.39807  -0.0664 
 C                     3.74295   2.14031  -0.2119 
 C                     4.86447   1.81114   0.5783 
 C                     6.06956   2.49976   0.44615 
 C                     6.19126   3.54054  -0.47844 
 C                     5.09229   3.8806   -1.27142 
 C                     3.88737   3.19015  -1.1427 
 C                     2.47456  -0.02898  -0.07441 
 C                     3.50845  -0.94842  -0.34674 
 C                     2.95712  -2.24175  -0.33177 
 C                     3.68964  -3.53039  -0.57334 
 C                     1.59596  -2.09312  -0.02643 
 C                     0.59647  -3.14602   0.12958 
 C                    -0.08384  -3.59121   1.25946 
 C                     0.17441  -3.17891   2.63716 
 O                     1.07725  -2.43823   3.02294 
 C                    -1.02495  -4.63812   0.97571 
 C                    -1.06343  -5.0235   -0.33309 
 C                    -1.89964  -6.09643  -0.97121 
 C                    -2.92464  -5.57289  -1.98919 
 S                     0.06589  -4.05359  -1.26554 
 N                     1.30307  -0.74339   0.11738 
 B                    -0.10196  -0.12867   0.3074 
 F                    -0.99233  -0.68192  -0.63071 
 F                    -0.58096  -0.42794   1.61104 
 C                     0.95282   3.46564   0.04425 
 C                    -0.43433   3.63878   0.11473 
 C                    -1.12946   4.97063   0.15796 
 S                    -3.59902   2.9646   -0.68995 
 H                    -6.32955   4.5021   -0.2625 
 H                    -7.95089   3.7944   -0.22956 
 H                    -6.87717   3.61909   1.17117 
 H                    -6.99296   1.49172  -0.1847 
 H                    -6.45067   2.36709  -1.60775 
 H                    -5.1754    0.32668   1.20993 
 H                    -2.57845   0.32764   1.57304 
 H                     4.77893   1.01757   1.31362 
 H                     6.91323   2.22814   1.07452 
 H                     7.12944   4.07782  -0.58044 
 H                     5.17531   4.68003  -2.00248 
 H                     3.05182   3.45     -1.78405 
 H                     4.54088  -0.69787  -0.54508 
 H                     3.74492  -3.77795  -1.64099 
 H                     4.71904  -3.46885  -0.20589 
 H                     3.20448  -4.37235  -0.07058 
 H                    -0.51443  -3.6363    3.37468 
 H                    -1.63131  -5.10662   1.74459 
 H                    -1.24878  -6.83215  -1.46007 
 H                    -2.41861  -6.62545  -0.16466 
 H                    -2.43432  -5.07534  -2.83249 
 H                    -3.51854  -6.40034  -2.39003 
 H                    -3.60773  -4.85486  -1.52453 
 H                     1.68778   4.25703   0.01441 
 H                    -1.52285   5.2731   -0.82026 
 H                    -1.97162   4.9755    0.85686 
 H                    -0.42692   5.74803   0.47411 
 
 ITRead=  0  0  0  0  0  0  0  0  0  0  0  0  0  0  0  0  0  0  0  0
 ITRead=  0  0  0  0  0  0  0  0  0  0  0  0  0  0  0  0  0  0  0  0
 ITRead=  0  0  0  0  0  0  0  0  0  0  0  0  0  0  0  0  0  0  0  0
 ITRead=  0  0  0  0  0
 MicOpt= -1 -1 -1 -1 -1 -1 -1 -1 -1 -1 -1 -1 -1 -1 -1 -1 -1 -1 -1 -1
 MicOpt= -1 -1 -1 -1 -1 -1 -1 -1 -1 -1 -1 -1 -1 -1 -1 -1 -1 -1 -1 -1
 MicOpt= -1 -1 -1 -1 -1 -1 -1 -1 -1 -1 -1 -1 -1 -1 -1 -1 -1 -1 -1 -1
 MicOpt= -1 -1 -1 -1 -1
 NAtoms=     65 NQM=       65 NQMF=       0 NMMI=      0 NMMIF=      0
                NMic=       0 NMicF=      0.
                    Isotopes and Nuclear Properties:
 (Nuclear quadrupole moments (NQMom) in fm**2, nuclear magnetic moments (NMagM)
  in nuclear magnetons)

  Atom         1           2           3           4           5           6           7           8           9          10
 IAtWgt=          12          12          12          12          12          12          12          14          12          12
 AtmWgt=  12.0000000  12.0000000  12.0000000  12.0000000  12.0000000  12.0000000  12.0000000  14.0030740  12.0000000  12.0000000
 NucSpn=           0           0           0           0           0           0           0           2           0           0
 AtZEff=  -0.0000000  -0.0000000  -0.0000000  -0.0000000  -0.0000000  -0.0000000  -0.0000000  -0.0000000  -0.0000000  -0.0000000
 NQMom=    0.0000000   0.0000000   0.0000000   0.0000000   0.0000000   0.0000000   0.0000000   2.0440000   0.0000000   0.0000000
 NMagM=    0.0000000   0.0000000   0.0000000   0.0000000   0.0000000   0.0000000   0.0000000   0.4037610   0.0000000   0.0000000
 AtZNuc=   6.0000000   6.0000000   6.0000000   6.0000000   6.0000000   6.0000000   6.0000000   7.0000000   6.0000000   6.0000000

  Atom        11          12          13          14          15          16          17          18          19          20
 IAtWgt=          12          12          12          12          12          12          12          12          12          12
 AtmWgt=  12.0000000  12.0000000  12.0000000  12.0000000  12.0000000  12.0000000  12.0000000  12.0000000  12.0000000  12.0000000
 NucSpn=           0           0           0           0           0           0           0           0           0           0
 AtZEff=  -0.0000000  -0.0000000  -0.0000000  -0.0000000  -0.0000000  -0.0000000  -0.0000000  -0.0000000  -0.0000000  -0.0000000
 NQMom=    0.0000000   0.0000000   0.0000000   0.0000000   0.0000000   0.0000000   0.0000000   0.0000000   0.0000000   0.0000000
 NMagM=    0.0000000   0.0000000   0.0000000   0.0000000   0.0000000   0.0000000   0.0000000   0.0000000   0.0000000   0.0000000
 AtZNuc=   6.0000000   6.0000000   6.0000000   6.0000000   6.0000000   6.0000000   6.0000000   6.0000000   6.0000000   6.0000000

  Atom        21          22          23          24          25          26          27          28          29          30
 IAtWgt=          12          12          12          12          16          12          12          12          12          32
 AtmWgt=  12.0000000  12.0000000  12.0000000  12.0000000  15.9949146  12.0000000  12.0000000  12.0000000  12.0000000  31.9720718
 NucSpn=           0           0           0           0           0           0           0           0           0           0
 AtZEff=  -0.0000000  -0.0000000  -0.0000000  -0.0000000  -0.0000000  -0.0000000  -0.0000000  -0.0000000  -0.0000000  -0.0000000
 NQMom=    0.0000000   0.0000000   0.0000000   0.0000000   0.0000000   0.0000000   0.0000000   0.0000000   0.0000000   0.0000000
 NMagM=    0.0000000   0.0000000   0.0000000   0.0000000   0.0000000   0.0000000   0.0000000   0.0000000   0.0000000   0.0000000
 AtZNuc=   6.0000000   6.0000000   6.0000000   6.0000000   8.0000000   6.0000000   6.0000000   6.0000000   6.0000000  16.0000000

  Atom        31          32          33          34          35          36          37          38          39          40
 IAtWgt=          14          11          19          19          12          12          12          32           1           1
 AtmWgt=  14.0030740  11.0093053  18.9984033  18.9984033  12.0000000  12.0000000  12.0000000  31.9720718   1.0078250   1.0078250
 NucSpn=           2           3           1           1           0           0           0           0           1           1
 AtZEff=  -0.0000000  -0.0000000  -0.0000000  -0.0000000  -0.0000000  -0.0000000  -0.0000000  -0.0000000  -0.0000000  -0.0000000
 NQMom=    2.0440000   4.0590000   0.0000000   0.0000000   0.0000000   0.0000000   0.0000000   0.0000000   0.0000000   0.0000000
 NMagM=    0.4037610   2.6886370   2.6288670   2.6288670   0.0000000   0.0000000   0.0000000   0.0000000   2.7928460   2.7928460
 AtZNuc=   7.0000000   5.0000000   9.0000000   9.0000000   6.0000000   6.0000000   6.0000000  16.0000000   1.0000000   1.0000000

  Atom        41          42          43          44          45          46          47          48          49          50
 IAtWgt=           1           1           1           1           1           1           1           1           1           1
 AtmWgt=   1.0078250   1.0078250   1.0078250   1.0078250   1.0078250   1.0078250   1.0078250   1.0078250   1.0078250   1.0078250
 NucSpn=           1           1           1           1           1           1           1           1           1           1
 AtZEff=  -0.0000000  -0.0000000  -0.0000000  -0.0000000  -0.0000000  -0.0000000  -0.0000000  -0.0000000  -0.0000000  -0.0000000
 NQMom=    0.0000000   0.0000000   0.0000000   0.0000000   0.0000000   0.0000000   0.0000000   0.0000000   0.0000000   0.0000000
 NMagM=    2.7928460   2.7928460   2.7928460   2.7928460   2.7928460   2.7928460   2.7928460   2.7928460   2.7928460   2.7928460
 AtZNuc=   1.0000000   1.0000000   1.0000000   1.0000000   1.0000000   1.0000000   1.0000000   1.0000000   1.0000000   1.0000000

  Atom        51          52          53          54          55          56          57          58          59          60
 IAtWgt=           1           1           1           1           1           1           1           1           1           1
 AtmWgt=   1.0078250   1.0078250   1.0078250   1.0078250   1.0078250   1.0078250   1.0078250   1.0078250   1.0078250   1.0078250
 NucSpn=           1           1           1           1           1           1           1           1           1           1
 AtZEff=  -0.0000000  -0.0000000  -0.0000000  -0.0000000  -0.0000000  -0.0000000  -0.0000000  -0.0000000  -0.0000000  -0.0000000
 NQMom=    0.0000000   0.0000000   0.0000000   0.0000000   0.0000000   0.0000000   0.0000000   0.0000000   0.0000000   0.0000000
 NMagM=    2.7928460   2.7928460   2.7928460   2.7928460   2.7928460   2.7928460   2.7928460   2.7928460   2.7928460   2.7928460
 AtZNuc=   1.0000000   1.0000000   1.0000000   1.0000000   1.0000000   1.0000000   1.0000000   1.0000000   1.0000000   1.0000000

  Atom        61          62          63          64          65
 IAtWgt=           1           1           1           1           1
 AtmWgt=   1.0078250   1.0078250   1.0078250   1.0078250   1.0078250
 NucSpn=           1           1           1           1           1
 AtZEff=  -0.0000000  -0.0000000  -0.0000000  -0.0000000  -0.0000000
 NQMom=    0.0000000   0.0000000   0.0000000   0.0000000   0.0000000
 NMagM=    2.7928460   2.7928460   2.7928460   2.7928460   2.7928460
 AtZNuc=   1.0000000   1.0000000   1.0000000   1.0000000   1.0000000
 Leave Link  101 at Thu Nov  6 08:39:15 2025, MaxMem= 30870077440 cpu:               3.8 elap:               0.1
 (Enter /public/software/gauss/g16/l202.exe)
 Stoichiometry    C30H27BF2N2OS2(1-,2)
 Framework group  C1[X(C30H27BF2N2OS2)]
 Deg. of freedom   189
 Full point group                 C1      NOp   1
 Largest Abelian subgroup         C1      NOp   1
 Largest concise Abelian subgroup C1      NOp   1
                         Standard orientation:                         
 ---------------------------------------------------------------------
 Center     Atomic      Atomic             Coordinates (Angstroms)
 Number     Number       Type             X           Y           Z
 ---------------------------------------------------------------------
      1          6           0        6.911338   -3.639026    0.077119
      2          6           0        6.367015   -2.328426   -0.514240
      3          6           0        4.952981   -2.013252   -0.114029
      4          6           0        4.503063   -1.031759    0.730999
      5          6           0        3.093874   -1.030234    0.933886
      6          6           0        2.425376   -2.020065    0.242731
      7          6           0        1.009196   -2.350584    0.171411
      8          7           0       -0.016234   -1.403732    0.128534
      9          6           0       -1.228665   -2.082717    0.032853
     10          6           0       -2.472265   -1.398068   -0.066402
     11          6           0       -3.742947   -2.140305   -0.211900
     12          6           0       -4.864473   -1.811142    0.578298
     13          6           0       -6.069560   -2.499755    0.446145
     14          6           0       -6.191262   -3.540538   -0.478437
     15          6           0       -5.092291   -3.880596   -1.271417
     16          6           0       -3.887371   -3.190147   -1.142696
     17          6           0       -2.474556    0.028975   -0.074414
     18          6           0       -3.508453    0.948423   -0.346739
     19          6           0       -2.957118    2.241752   -0.331772
     20          6           0       -3.689639    3.530391   -0.573335
     21          6           0       -1.595963    2.093122   -0.026432
     22          6           0       -0.596465    3.146015    0.129581
     23          6           0        0.083841    3.591214    1.259462
     24          6           0       -0.174406    3.178907    2.637164
     25          8           0       -1.077246    2.438225    3.022942
     26          6           0        1.024947    4.638116    0.975706
     27          6           0        1.063426    5.023497   -0.333088
     28          6           0        1.899641    6.096430   -0.971211
     29          6           0        2.924636    5.572894   -1.989186
     30         16           0       -0.065885    4.053589   -1.265538
     31          7           0       -1.303068    0.743394    0.117382
     32          5           0        0.101963    0.128674    0.307397
     33          9           0        0.992326    0.681919   -0.630705
     34          9           0        0.580964    0.427942    1.611043
     35          6           0       -0.952815   -3.465643    0.044254
     36          6           0        0.434325   -3.638778    0.114728
     37          6           0        1.129459   -4.970628    0.157955
     38         16           0        3.599016   -2.964596   -0.689949
     39          1           0        6.329553   -4.502100   -0.262498
     40          1           0        7.950887   -3.794396   -0.229559
     41          1           0        6.877166   -3.619094    1.171165
     42          1           0        6.992961   -1.491723   -0.184704
     43          1           0        6.450668   -2.367089   -1.607753
     44          1           0        5.175400   -0.326678    1.209928
     45          1           0        2.578449   -0.327636    1.573039
     46          1           0       -4.778926   -1.017570    1.313622
     47          1           0       -6.913226   -2.228142    1.074515
     48          1           0       -7.129438   -4.077817   -0.580443
     49          1           0       -5.175313   -4.680032   -2.002476
     50          1           0       -3.051823   -3.450001   -1.784048
     51          1           0       -4.540879    0.697869   -0.545077
     52          1           0       -3.744919    3.777950   -1.640990
     53          1           0       -4.719037    3.468847   -0.205894
     54          1           0       -3.204484    4.372353   -0.070580
     55          1           0        0.514433    3.636295    3.374681
     56          1           0        1.631311    5.106622    1.744591
     57          1           0        1.248783    6.832148   -1.460072
     58          1           0        2.418612    6.625453   -0.164657
     59          1           0        2.434318    5.075340   -2.832487
     60          1           0        3.518545    6.400340   -2.390031
     61          1           0        3.607727    4.854855   -1.524530
     62          1           0       -1.687782   -4.257033    0.014410
     63          1           0        1.522849   -5.273103   -0.820255
     64          1           0        1.971618   -4.975499    0.856862
     65          1           0        0.426915   -5.748026    0.474109
 ---------------------------------------------------------------------
 Rotational constants (GHZ):           0.0876110           0.0832714           0.0472835
 Leave Link  202 at Thu Nov  6 08:39:15 2025, MaxMem= 30870077440 cpu:               0.2 elap:               0.0
 (Enter /public/software/gauss/g16/l301.exe)
 Standard basis: def2TZVPP (5D, 7F)
 Ernie: Thresh=  0.10000D-02 Tol=  0.10000D-05 Strict=F.
 There are  1797 symmetry adapted cartesian basis functions of A   symmetry.
 There are  1578 symmetry adapted basis functions of A   symmetry.
  1578 basis functions,  2433 primitive gaussians,  1797 cartesian basis functions
   143 alpha electrons      142 beta electrons
       nuclear repulsion energy      4534.9943998661 Hartrees.
 IExCor= 4336 DFT=T Ex+Corr=M062X ExCW=0 ScaHFX=  0.540000
 ScaDFX=  1.000000  1.000000  1.000000  1.000000 ScalE2=  1.000000  1.000000
 IRadAn=      5 IRanWt=     -1 IRanGd=            0 ICorTp=0 IEmpDi=131
 NAtoms=   65 NActive=   65 NUniq=   65 SFac= 1.00D+00 NAtFMM=   60 NAOKFM=T Big=T
 Integral buffers will be    131072 words long.
 Raffenetti 2 integral format.
 Two-electron integral symmetry is turned on.
 R6Disp:  Grimme-D3 Dispersion energy=       -0.0055793772 Hartrees.
 Nuclear repulsion after empirical dispersion term =     4534.9888204889 Hartrees.
 ------------------------------------------------------------------------------
 Polarizable Continuum Model (PCM)
 =================================
 Model                : PCM.
 Atomic radii         : UFF (Universal Force Field).
 Polarization charges : Total charges.
 Charge compensation  : None.
 Solution method      : On-the-fly selection.
 Cavity type          : Scaled VdW (van der Waals Surface) (Alpha=1.100).
 Cavity algorithm     : GePol (No added spheres)
                        Default sphere list used, NSphG=   65.
                        Lebedev-Laikov grids with approx.  5.0 points / Ang**2.
                        Smoothing algorithm: York/Karplus (Gamma=1.0000).
                        Polarization charges: spherical gaussians, with
                                              point-specific exponents (IZeta= 3).
                        Self-potential: point-specific (ISelfS= 7).
                        Self-field    : sphere-specific E.n sum rule (ISelfD= 2).
 Solvent              : Water, Eps=  78.355300 Eps(inf)=   1.777849
 ------------------------------------------------------------------------------
 GePol: Number of generator spheres                  =      65
 GePol: Total number of spheres                      =      65
 GePol: Number of exposed spheres                    =      65 (100.00%)
 GePol: Number of points                             =    4844
 GePol: Average weight of points                     =       0.13
 GePol: Minimum weight of points                     =   0.44D-10
 GePol: Maximum weight of points                     =    0.20577
 GePol: Number of points with low weight             =     334
 GePol: Fraction of low-weight points (<1% of avg)   =       6.90%
 GePol: Cavity surface area                          =    617.927 Ang**2
 GePol: Cavity volume                                =    711.063 Ang**3
 Leave Link  301 at Thu Nov  6 08:39:16 2025, MaxMem= 30870077440 cpu:               3.7 elap:               0.1
 (Enter /public/software/gauss/g16/l302.exe)
 NPDir=0 NMtPBC=     1 NCelOv=     1 NCel=       1 NClECP=     1 NCelD=      1
         NCelK=      1 NCelE2=     1 NClLst=     1 CellRange=     0.0.
 One-electron integrals computed using PRISM.
 One-electron integral symmetry used in STVInt
   1 Symmetry operations used in ECPInt.
 ECPInt:  NShTT=  171991 NPrTT=  491488 LenC2=  122362 LenP2D=  238520.
 LDataN:  DoStor=T MaxTD1= 6 Len=  172
 NBasis=  1578 RedAO= T EigKep=  6.92D-06  NBF=  1578
 NBsUse=  1578 1.00D-06 EigRej= -1.00D+00 NBFU=  1578
 Precomputing XC quadrature grid using
 IXCGrd= 4 IRadAn=           5 IRanWt=          -1 IRanGd=           0 AccXCQ= 0.00D+00.
 Generated NRdTot=       0 NPtTot=           0 NUsed=           0 NTot=          32
 NSgBfM=  1689  1689  1689  1689  1689 MxSgAt=    65 MxSgA2=    65.
 Leave Link  302 at Thu Nov  6 08:39:22 2025, MaxMem= 30870077440 cpu:             407.4 elap:               6.4
 (Enter /public/software/gauss/g16/l303.exe)
 DipDrv:  MaxL=1.
 Leave Link  303 at Thu Nov  6 08:39:22 2025, MaxMem= 30870077440 cpu:              21.5 elap:               0.4
 (Enter /public/software/gauss/g16/l401.exe)
 ExpMin= 6.06D-02 ExpMax= 6.07D+04 ExpMxC= 2.07D+03 IAcc=3 IRadAn=         5 AccDes= 0.00D+00
 Harris functional with IExCor= 1009 and IRadAn=       5 diagonalized for initial guess.
 HarFok:  IExCor= 1009 AccDes= 0.00D+00 IRadAn=         5 IDoV= 1 UseB2=F ITyADJ=14
 ICtDFT=  3500011 ScaDFX=  1.000000  1.000000  1.000000  1.000000
 FoFCou: FMM=F IPFlag=           0 FMFlag=      100000 FMFlg1=        2001
         NFxFlg=           0 DoJE=T BraDBF=F KetDBF=T FulRan=T
         wScrn=  0.000000 ICntrl=       500 IOpCl=  0 I1Cent=   200000004 NGrid=           0
         NMat0=    1 NMatS0=      1 NMatT0=    0 NMatD0=    1 NMtDS0=    0 NMtDT0=    0
 Petite list used in FoFCou.
 Harris En= -2364.38212924979    
 JPrj=0 DoOrth=F DoCkMO=F.
 Initial guess <Sx>= 0.0000 <Sy>= 0.0000 <Sz>= 0.5000 <S**2>= 0.7500 S= 0.5000
 Leave Link  401 at Thu Nov  6 08:39:31 2025, MaxMem= 30870077440 cpu:             553.1 elap:               8.7
 (Enter /public/software/gauss/g16/l502.exe)
 Integral symmetry usage will be decided dynamically.
 UHF open shell SCF:
 Using DIIS extrapolation, IDIIS=  1040.
 NGot= 30870077440 LenX= 30863488881 LenY= 30860257875
 Requested convergence on RMS density matrix=1.00D-08 within 128 cycles.
 Requested convergence on MAX density matrix=1.00D-06.
 Requested convergence on             energy=1.00D-06.
 No special actions if energy rises.
 Fock matrices will be formed incrementally for  20 cycles.

 Cycle   1  Pass 1  IDiag  1:
 FoFJK:  IHMeth= 1 ICntrl=       0 DoSepK=F KAlg= 0 I1Cent=           0 FoldK=F
 IRaf= 690000000 NMat=       1 IRICut=       1 DoRegI=T DoRafI=F ISym2E= 0 IDoP0=0 IntGTp=1.
 FoFCou: FMM=T IPFlag=           0 FMFlag=      100000 FMFlg1=        2001
         NFxFlg=           0 DoJE=F BraDBF=F KetDBF=F FulRan=T
         wScrn=  0.000000 ICntrl=         0 IOpCl=  1 I1Cent=           0 NGrid=           0
         NMat0=    1 NMatS0=      1 NMatT0=    0 NMatD0=    1 NMtDS0=    0 NMtDT0=    0
 Symmetry not used in FoFCou.
 FMM levels:  10  Number of levels for PrismC:   9
 Inv3:  Mode=1 IEnd=    70393008.
 Iteration    1 A*A^-1 deviation from unit magnitude is 6.77D-15 for    765.
 Iteration    1 A*A^-1 deviation from orthogonality  is 4.22D-15 for   4405    763.
 Iteration    1 A^-1*A deviation from unit magnitude is 5.22D-15 for    765.
 Iteration    1 A^-1*A deviation from orthogonality  is 2.37D-15 for   3066   2789.
 E= -2364.25018070267    
 DIIS: error= 1.39D-02 at cycle   1 NSaved=   1.
 NSaved= 1 IEnMin= 1 EnMin= -2364.25018070267     IErMin= 1 ErrMin= 1.39D-02
 ErrMax= 1.39D-02  0.00D+00 EMaxC= 1.00D-01 BMatC= 5.48D+00 BMatP= 5.48D+00
 IDIUse=3 WtCom= 8.61D-01 WtEn= 1.39D-01
 Coeff-Com:  0.100D+01
 Coeff-En:   0.100D+01
 Coeff:      0.100D+01
 Gap=     0.104 Goal=   None    Shift=    0.000
 Gap=     0.203 Goal=   None    Shift=    0.000
 GapD=    0.104 DampG=1.000 DampE=0.500 DampFc=0.5000 IDamp=-1.
 Damping current iteration by 5.00D-01
 RMSDP=2.20D-03 MaxDP=4.46D-01              OVMax= 2.63D-01

 Cycle   2  Pass 1  IDiag  1:
 RMSU=  1.10D-03    CP:  9.95D-01
 E= -2364.82391547953     Delta-E=       -0.573734776865 Rises=F Damp=T
 DIIS: error= 4.25D-03 at cycle   2 NSaved=   2.
 NSaved= 2 IEnMin= 2 EnMin= -2364.82391547953     IErMin= 2 ErrMin= 4.25D-03
 ErrMax= 4.25D-03  0.00D+00 EMaxC= 1.00D-01 BMatC= 4.20D-01 BMatP= 5.48D+00
 IDIUse=3 WtCom= 9.57D-01 WtEn= 4.25D-02
 Coeff-Com: -0.823D-01 0.108D+01
 Coeff-En:   0.000D+00 0.100D+01
 Coeff:     -0.788D-01 0.108D+01
 Gap=     0.126 Goal=   None    Shift=    0.000
 Gap=     0.172 Goal=   None    Shift=    0.000
 RMSDP=7.64D-04 MaxDP=1.12D-01 DE=-5.74D-01 OVMax= 1.76D-01

 Cycle   3  Pass 1  IDiag  1:
 RMSU=  7.27D-04    CP:  9.73D-01  8.06D-01
 E= -2365.37400573075     Delta-E=       -0.550090251214 Rises=F Damp=F
 DIIS: error= 2.02D-03 at cycle   3 NSaved=   3.
 NSaved= 3 IEnMin= 3 EnMin= -2365.37400573075     IErMin= 3 ErrMin= 2.02D-03
 ErrMax= 2.02D-03  0.00D+00 EMaxC= 1.00D-01 BMatC= 1.40D-01 BMatP= 4.20D-01
 IDIUse=3 WtCom= 9.80D-01 WtEn= 2.02D-02
 Coeff-Com: -0.895D-01 0.390D+00 0.699D+00
 Coeff-En:   0.000D+00 0.000D+00 0.100D+01
 Coeff:     -0.877D-01 0.382D+00 0.705D+00
 Gap=     0.138 Goal=   None    Shift=    0.000
 Gap=     0.162 Goal=   None    Shift=    0.000
 RMSDP=2.19D-04 MaxDP=4.48D-02 DE=-5.50D-01 OVMax= 5.08D-02

 Cycle   4  Pass 1  IDiag  1:
 RMSU=  2.08D-04    CP:  9.76D-01  8.59D-01  9.58D-01
 E= -2365.39925328983     Delta-E=       -0.025247559081 Rises=F Damp=F
 DIIS: error= 1.19D-03 at cycle   4 NSaved=   4.
 NSaved= 4 IEnMin= 4 EnMin= -2365.39925328983     IErMin= 4 ErrMin= 1.19D-03
 ErrMax= 1.19D-03  0.00D+00 EMaxC= 1.00D-01 BMatC= 3.55D-02 BMatP= 1.40D-01
 IDIUse=3 WtCom= 9.88D-01 WtEn= 1.19D-02
 Coeff-Com: -0.342D-01 0.899D-01 0.376D+00 0.568D+00
 Coeff-En:   0.000D+00 0.000D+00 0.148D+00 0.852D+00
 Coeff:     -0.338D-01 0.889D-01 0.373D+00 0.571D+00
 Gap=     0.136 Goal=   None    Shift=    0.000
 Gap=     0.163 Goal=   None    Shift=    0.000
 RMSDP=8.50D-05 MaxDP=1.41D-02 DE=-2.52D-02 OVMax= 1.81D-02

 Cycle   5  Pass 1  IDiag  1:
 RMSU=  6.55D-05    CP:  9.74D-01  8.49D-01  9.79D-01  7.61D-01
 E= -2365.40683329888     Delta-E=       -0.007580009056 Rises=F Damp=F
 DIIS: error= 3.12D-04 at cycle   5 NSaved=   5.
 NSaved= 5 IEnMin= 5 EnMin= -2365.40683329888     IErMin= 5 ErrMin= 3.12D-04
 ErrMax= 3.12D-04  0.00D+00 EMaxC= 1.00D-01 BMatC= 1.93D-03 BMatP= 3.55D-02
 IDIUse=3 WtCom= 9.97D-01 WtEn= 3.12D-03
 Coeff-Com: -0.905D-02 0.158D-01 0.133D+00 0.266D+00 0.594D+00
 Coeff-En:   0.000D+00 0.000D+00 0.000D+00 0.000D+00 0.100D+01
 Coeff:     -0.903D-02 0.158D-01 0.133D+00 0.266D+00 0.595D+00
 Gap=     0.135 Goal=   None    Shift=    0.000
 Gap=     0.165 Goal=   None    Shift=    0.000
 RMSDP=2.66D-05 MaxDP=4.61D-03 DE=-7.58D-03 OVMax= 6.94D-03

 Cycle   6  Pass 1  IDiag  1:
 RMSU=  2.60D-05    CP:  9.74D-01  8.47D-01  9.84D-01  7.81D-01  1.01D+00
 E= -2365.40735202383     Delta-E=       -0.000518724948 Rises=F Damp=F
 DIIS: error= 1.17D-04 at cycle   6 NSaved=   6.
 NSaved= 6 IEnMin= 6 EnMin= -2365.40735202383     IErMin= 6 ErrMin= 1.17D-04
 ErrMax= 1.17D-04  0.00D+00 EMaxC= 1.00D-01 BMatC= 2.47D-04 BMatP= 1.93D-03
 IDIUse=3 WtCom= 9.99D-01 WtEn= 1.17D-03
 Coeff-Com:  0.198D-02-0.798D-02 0.833D-03 0.212D-01 0.228D+00 0.756D+00
 Coeff-En:   0.000D+00 0.000D+00 0.000D+00 0.000D+00 0.000D+00 0.100D+01
 Coeff:      0.198D-02-0.797D-02 0.832D-03 0.212D-01 0.227D+00 0.757D+00
 Gap=     0.137 Goal=   None    Shift=    0.000
 Gap=     0.166 Goal=   None    Shift=    0.000
 RMSDP=1.80D-05 MaxDP=2.61D-03 DE=-5.19D-04 OVMax= 4.93D-03

 Cycle   7  Pass 1  IDiag  1:
 RMSU=  1.25D-05    CP:  9.75D-01  8.46D-01  9.87D-01  8.01D-01  1.18D+00
                    CP:  1.17D+00
 E= -2365.40747772315     Delta-E=       -0.000125699323 Rises=F Damp=F
 DIIS: error= 5.34D-05 at cycle   7 NSaved=   7.
 NSaved= 7 IEnMin= 7 EnMin= -2365.40747772315     IErMin= 7 ErrMin= 5.34D-05
 ErrMax= 5.34D-05  0.00D+00 EMaxC= 1.00D-01 BMatC= 6.54D-05 BMatP= 2.47D-04
 IDIUse=1 WtCom= 1.00D+00 WtEn= 0.00D+00
 Coeff-Com:  0.294D-02-0.707D-02-0.281D-01-0.520D-01-0.546D-01 0.307D+00
 Coeff-Com:  0.832D+00
 Coeff:      0.294D-02-0.707D-02-0.281D-01-0.520D-01-0.546D-01 0.307D+00
 Coeff:      0.832D+00
 Gap=     0.138 Goal=   None    Shift=    0.000
 Gap=     0.167 Goal=   None    Shift=    0.000
 RMSDP=1.21D-05 MaxDP=3.68D-03 DE=-1.26D-04 OVMax= 3.65D-03

 Cycle   8  Pass 1  IDiag  1:
 RMSU=  5.72D-06    CP:  9.75D-01  8.45D-01  9.89D-01  8.18D-01  1.27D+00
                    CP:  1.45D+00  1.21D+00
 E= -2365.40752344199     Delta-E=       -0.000045718838 Rises=F Damp=F
 DIIS: error= 2.98D-05 at cycle   8 NSaved=   8.
 NSaved= 8 IEnMin= 8 EnMin= -2365.40752344199     IErMin= 8 ErrMin= 2.98D-05
 ErrMax= 2.98D-05  0.00D+00 EMaxC= 1.00D-01 BMatC= 1.84D-05 BMatP= 6.54D-05
 IDIUse=1 WtCom= 1.00D+00 WtEn= 0.00D+00
 Coeff-Com:  0.895D-03-0.140D-02-0.132D-01-0.301D-01-0.769D-01-0.430D-01
 Coeff-Com:  0.384D+00 0.780D+00
 Coeff:      0.895D-03-0.140D-02-0.132D-01-0.301D-01-0.769D-01-0.430D-01
 Coeff:      0.384D+00 0.780D+00
 Gap=     0.138 Goal=   None    Shift=    0.000
 Gap=     0.168 Goal=   None    Shift=    0.000
 RMSDP=6.20D-06 MaxDP=7.03D-04 DE=-4.57D-05 OVMax= 2.08D-03

 Cycle   9  Pass 1  IDiag  1:
 RMSU=  2.74D-06    CP:  9.75D-01  8.44D-01  9.90D-01  8.24D-01  1.31D+00
                    CP:  1.54D+00  1.50D+00  1.20D+00
 E= -2365.40753534539     Delta-E=       -0.000011903397 Rises=F Damp=F
 DIIS: error= 1.50D-05 at cycle   9 NSaved=   9.
 NSaved= 9 IEnMin= 9 EnMin= -2365.40753534539     IErMin= 9 ErrMin= 1.50D-05
 ErrMax= 1.50D-05  0.00D+00 EMaxC= 1.00D-01 BMatC= 4.13D-06 BMatP= 1.84D-05
 IDIUse=1 WtCom= 1.00D+00 WtEn= 0.00D+00
 Coeff-Com: -0.290D-03 0.100D-02 0.650D-03-0.135D-02-0.185D-01-0.919D-01
 Coeff-Com: -0.173D-01 0.344D+00 0.784D+00
 Coeff:     -0.290D-03 0.100D-02 0.650D-03-0.135D-02-0.185D-01-0.919D-01
 Coeff:     -0.173D-01 0.344D+00 0.784D+00
 Gap=     0.138 Goal=   None    Shift=    0.000
 Gap=     0.168 Goal=   None    Shift=    0.000
 RMSDP=2.73D-06 MaxDP=7.44D-04 DE=-1.19D-05 OVMax= 9.26D-04

 Cycle  10  Pass 1  IDiag  1:
 RMSU=  1.23D-06    CP:  9.75D-01  8.44D-01  9.90D-01  8.27D-01  1.33D+00
                    CP:  1.57D+00  1.58D+00  1.48D+00  1.21D+00
 E= -2365.40753807237     Delta-E=       -0.000002726985 Rises=F Damp=F
 DIIS: error= 6.65D-06 at cycle  10 NSaved=  10.
 NSaved=10 IEnMin=10 EnMin= -2365.40753807237     IErMin=10 ErrMin= 6.65D-06
 ErrMax= 6.65D-06  0.00D+00 EMaxC= 1.00D-01 BMatC= 9.35D-07 BMatP= 4.13D-06
 IDIUse=1 WtCom= 1.00D+00 WtEn= 0.00D+00
 Coeff-Com: -0.382D-03 0.864D-03 0.382D-02 0.779D-02 0.133D-01-0.300D-01
 Coeff-Com: -0.107D+00-0.666D-01 0.324D+00 0.854D+00
 Coeff:     -0.382D-03 0.864D-03 0.382D-02 0.779D-02 0.133D-01-0.300D-01
 Coeff:     -0.107D+00-0.666D-01 0.324D+00 0.854D+00
 Gap=     0.138 Goal=   None    Shift=    0.000
 Gap=     0.168 Goal=   None    Shift=    0.000
 RMSDP=1.44D-06 MaxDP=1.43D-04 DE=-2.73D-06 OVMax= 5.93D-04

 Cycle  11  Pass 1  IDiag  1:
 RMSU=  6.32D-07    CP:  9.75D-01  8.44D-01  9.90D-01  8.28D-01  1.33D+00
                    CP:  1.58D+00  1.63D+00  1.56D+00  1.51D+00  1.39D+00
 E= -2365.40753877298     Delta-E=       -0.000000700608 Rises=F Damp=F
 DIIS: error= 2.71D-06 at cycle  11 NSaved=  11.
 NSaved=11 IEnMin=11 EnMin= -2365.40753877298     IErMin=11 ErrMin= 2.71D-06
 ErrMax= 2.71D-06  0.00D+00 EMaxC= 1.00D-01 BMatC= 1.72D-07 BMatP= 9.35D-07
 IDIUse=1 WtCom= 1.00D+00 WtEn= 0.00D+00
 Coeff-Com: -0.807D-04 0.124D-03 0.109D-02 0.295D-02 0.760D-02 0.400D-02
 Coeff-Com: -0.344D-01-0.799D-01-0.196D-01 0.319D+00 0.799D+00
 Coeff:     -0.807D-04 0.124D-03 0.109D-02 0.295D-02 0.760D-02 0.400D-02
 Coeff:     -0.344D-01-0.799D-01-0.196D-01 0.319D+00 0.799D+00
 Gap=     0.138 Goal=   None    Shift=    0.000
 Gap=     0.168 Goal=   None    Shift=    0.000
 RMSDP=5.61D-07 MaxDP=5.80D-05 DE=-7.01D-07 OVMax= 2.20D-04

 Cycle  12  Pass 1  IDiag  1:
 RMSU=  3.06D-07    CP:  9.75D-01  8.44D-01  9.90D-01  8.28D-01  1.33D+00
                    CP:  1.58D+00  1.64D+00  1.59D+00  1.60D+00  1.59D+00
                    CP:  1.36D+00
 E= -2365.40753890917     Delta-E=       -0.000000136190 Rises=F Damp=F
 DIIS: error= 1.60D-06 at cycle  12 NSaved=  12.
 NSaved=12 IEnMin=12 EnMin= -2365.40753890917     IErMin=12 ErrMin= 1.60D-06
 ErrMax= 1.60D-06  0.00D+00 EMaxC= 1.00D-01 BMatC= 4.72D-08 BMatP= 1.72D-07
 IDIUse=1 WtCom= 1.00D+00 WtEn= 0.00D+00
 Coeff-Com:  0.590D-04-0.156D-03-0.537D-03-0.696D-03 0.195D-03 0.878D-02
 Coeff-Com:  0.112D-01-0.138D-01-0.895D-01-0.732D-01 0.323D+00 0.835D+00
 Coeff:      0.590D-04-0.156D-03-0.537D-03-0.696D-03 0.195D-03 0.878D-02
 Coeff:      0.112D-01-0.138D-01-0.895D-01-0.732D-01 0.323D+00 0.835D+00
 Gap=     0.138 Goal=   None    Shift=    0.000
 Gap=     0.168 Goal=   None    Shift=    0.000
 RMSDP=3.43D-07 MaxDP=3.92D-05 DE=-1.36D-07 OVMax= 1.27D-04

 Cycle  13  Pass 1  IDiag  1:
 RMSU=  1.41D-07    CP:  9.75D-01  8.44D-01  9.90D-01  8.28D-01  1.33D+00
                    CP:  1.58D+00  1.64D+00  1.59D+00  1.64D+00  1.72D+00
                    CP:  1.70D+00  1.30D+00
 E= -2365.40753895261     Delta-E=       -0.000000043435 Rises=F Damp=F
 DIIS: error= 8.55D-07 at cycle  13 NSaved=  13.
 NSaved=13 IEnMin=13 EnMin= -2365.40753895261     IErMin=13 ErrMin= 8.55D-07
 ErrMax= 8.55D-07  0.00D+00 EMaxC= 1.00D-01 BMatC= 1.19D-08 BMatP= 4.72D-08
 IDIUse=1 WtCom= 1.00D+00 WtEn= 0.00D+00
 Coeff-Com:  0.402D-04-0.852D-04-0.483D-03-0.101D-02-0.166D-02 0.256D-02
 Coeff-Com:  0.122D-01 0.152D-01-0.343D-01-0.108D+00-0.656D-01 0.331D+00
 Coeff-Com:  0.851D+00
 Coeff:      0.402D-04-0.852D-04-0.483D-03-0.101D-02-0.166D-02 0.256D-02
 Coeff:      0.122D-01 0.152D-01-0.343D-01-0.108D+00-0.656D-01 0.331D+00
 Coeff:      0.851D+00
 Gap=     0.138 Goal=   None    Shift=    0.000
 Gap=     0.168 Goal=   None    Shift=    0.000
 RMSDP=1.82D-07 MaxDP=2.23D-05 DE=-4.34D-08 OVMax= 7.00D-05

 Cycle  14  Pass 1  IDiag  1:
 RMSU=  7.11D-08    CP:  9.75D-01  8.44D-01  9.90D-01  8.28D-01  1.33D+00
                    CP:  1.58D+00  1.64D+00  1.59D+00  1.65D+00  1.78D+00
                    CP:  1.86D+00  1.59D+00  1.39D+00
 E= -2365.40753896662     Delta-E=       -0.000000014018 Rises=F Damp=F
 DIIS: error= 4.84D-07 at cycle  14 NSaved=  14.
 NSaved=14 IEnMin=14 EnMin= -2365.40753896662     IErMin=14 ErrMin= 4.84D-07
 ErrMax= 4.84D-07  0.00D+00 EMaxC= 1.00D-01 BMatC= 3.58D-09 BMatP= 1.19D-08
 IDIUse=1 WtCom= 1.00D+00 WtEn= 0.00D+00
 Coeff-Com: -0.190D-05 0.108D-04-0.232D-04-0.185D-03-0.688D-03-0.128D-02
 Coeff-Com:  0.137D-02 0.992D-02 0.105D-01-0.197D-01-0.112D+00-0.109D+00
 Coeff-Com:  0.323D+00 0.899D+00
 Coeff:     -0.190D-05 0.108D-04-0.232D-04-0.185D-03-0.688D-03-0.128D-02
 Coeff:      0.137D-02 0.992D-02 0.105D-01-0.197D-01-0.112D+00-0.109D+00
 Coeff:      0.323D+00 0.899D+00
 Gap=     0.138 Goal=   None    Shift=    0.000
 Gap=     0.168 Goal=   None    Shift=    0.000
 RMSDP=1.02D-07 MaxDP=1.50D-05 DE=-1.40D-08 OVMax= 4.47D-05

 Cycle  15  Pass 1  IDiag  1:
 RMSU=  4.18D-08    CP:  9.75D-01  8.44D-01  9.90D-01  8.28D-01  1.33D+00
                    CP:  1.58D+00  1.64D+00  1.59D+00  1.66D+00  1.80D+00
                    CP:  1.93D+00  1.72D+00  1.77D+00  1.49D+00
 E= -2365.40753897138     Delta-E=       -0.000000004758 Rises=F Damp=F
 DIIS: error= 2.29D-07 at cycle  15 NSaved=  15.
 NSaved=15 IEnMin=15 EnMin= -2365.40753897138     IErMin=15 ErrMin= 2.29D-07
 ErrMax= 2.29D-07  0.00D+00 EMaxC= 1.00D-01 BMatC= 1.09D-09 BMatP= 3.58D-09
 IDIUse=1 WtCom= 1.00D+00 WtEn= 0.00D+00
 Coeff-Com: -0.146D-04 0.339D-04 0.176D-03 0.292D-03 0.290D-03-0.139D-02
 Coeff-Com: -0.409D-02-0.192D-02 0.163D-01 0.332D-01-0.173D-01-0.164D+00
 Coeff-Com: -0.176D+00 0.353D+00 0.962D+00
 Coeff:     -0.146D-04 0.339D-04 0.176D-03 0.292D-03 0.290D-03-0.139D-02
 Coeff:     -0.409D-02-0.192D-02 0.163D-01 0.332D-01-0.173D-01-0.164D+00
 Coeff:     -0.176D+00 0.353D+00 0.962D+00
 Gap=     0.138 Goal=   None    Shift=    0.000
 Gap=     0.168 Goal=   None    Shift=    0.000
 RMSDP=6.38D-08 MaxDP=6.09D-06 DE=-4.76D-09 OVMax= 2.97D-05

 Cycle  16  Pass 1  IDiag  1:
 RMSU=  2.19D-08    CP:  9.75D-01  8.44D-01  9.90D-01  8.28D-01  1.33D+00
                    CP:  1.58D+00  1.64D+00  1.60D+00  1.66D+00  1.81D+00
                    CP:  1.95D+00  1.78D+00  1.98D+00  1.96D+00  1.56D+00
 E= -2365.40753897294     Delta-E=       -0.000000001554 Rises=F Damp=F
 DIIS: error= 1.27D-07 at cycle  16 NSaved=  16.
 NSaved=16 IEnMin=16 EnMin= -2365.40753897294     IErMin=16 ErrMin= 1.27D-07
 ErrMax= 1.27D-07  0.00D+00 EMaxC= 1.00D-01 BMatC= 2.45D-10 BMatP= 1.09D-09
 IDIUse=1 WtCom= 1.00D+00 WtEn= 0.00D+00
 Coeff-Com: -0.374D-05 0.750D-05 0.688D-04 0.145D-03 0.257D-03-0.169D-03
 Coeff-Com: -0.177D-02-0.327D-02 0.316D-02 0.170D-01 0.237D-01-0.303D-01
 Coeff-Com: -0.153D+00-0.115D+00 0.371D+00 0.889D+00
 Coeff:     -0.374D-05 0.750D-05 0.688D-04 0.145D-03 0.257D-03-0.169D-03
 Coeff:     -0.177D-02-0.327D-02 0.316D-02 0.170D-01 0.237D-01-0.303D-01
 Coeff:     -0.153D+00-0.115D+00 0.371D+00 0.889D+00
 Gap=     0.138 Goal=   None    Shift=    0.000
 Gap=     0.168 Goal=   None    Shift=    0.000
 RMSDP=2.92D-08 MaxDP=3.20D-06 DE=-1.55D-09 OVMax= 1.23D-05

 Cycle  17  Pass 1  IDiag  1:
 RMSU=  1.07D-08    CP:  9.75D-01  8.44D-01  9.90D-01  8.28D-01  1.33D+00
                    CP:  1.58D+00  1.64D+00  1.60D+00  1.66D+00  1.81D+00
                    CP:  1.95D+00  1.80D+00  2.06D+00  2.16D+00  1.93D+00
                    CP:  1.32D+00
 E= -2365.40753897319     Delta-E=       -0.000000000252 Rises=F Damp=F
 DIIS: error= 5.71D-08 at cycle  17 NSaved=  17.
 NSaved=17 IEnMin=17 EnMin= -2365.40753897319     IErMin=17 ErrMin= 5.71D-08
 ErrMax= 5.71D-08  0.00D+00 EMaxC= 1.00D-01 BMatC= 4.09D-11 BMatP= 2.45D-10
 IDIUse=1 WtCom= 1.00D+00 WtEn= 0.00D+00
 Coeff-Com:  0.122D-05-0.311D-05-0.590D-05 0.166D-06 0.455D-04 0.156D-03
 Coeff-Com:  0.965D-04-0.768D-03-0.160D-02-0.173D-03 0.110D-01 0.195D-01
 Coeff-Com: -0.225D-01-0.104D+00-0.434D-01 0.300D+00 0.842D+00
 Coeff:      0.122D-05-0.311D-05-0.590D-05 0.166D-06 0.455D-04 0.156D-03
 Coeff:      0.965D-04-0.768D-03-0.160D-02-0.173D-03 0.110D-01 0.195D-01
 Coeff:     -0.225D-01-0.104D+00-0.434D-01 0.300D+00 0.842D+00
 Gap=     0.138 Goal=   None    Shift=    0.000
 Gap=     0.168 Goal=   None    Shift=    0.000
 RMSDP=9.82D-09 MaxDP=1.10D-06 DE=-2.52D-10 OVMax= 4.50D-06

 Cycle  18  Pass 1  IDiag  1:
 RMSU=  4.55D-09    CP:  9.75D-01  8.44D-01  9.90D-01  8.28D-01  1.33D+00
                    CP:  1.58D+00  1.64D+00  1.60D+00  1.66D+00  1.81D+00
                    CP:  1.95D+00  1.80D+00  2.07D+00  2.20D+00  2.05D+00
                    CP:  1.55D+00  1.27D+00
 E= -2365.40753897304     Delta-E=        0.000000000148 Rises=F Damp=F
 DIIS: error= 3.03D-08 at cycle  18 NSaved=  18.
 NSaved=18 IEnMin=17 EnMin= -2365.40753897319     IErMin=18 ErrMin= 3.03D-08
 ErrMax= 3.03D-08  0.00D+00 EMaxC= 1.00D-01 BMatC= 1.24D-11 BMatP= 4.09D-11
 IDIUse=1 WtCom= 1.00D+00 WtEn= 0.00D+00
 Coeff-Com:  0.111D-05-0.252D-05-0.142D-04-0.243D-04-0.211D-04 0.878D-04
 Coeff-Com:  0.356D-03 0.215D-03-0.113D-02-0.303D-02 0.456D-03 0.139D-01
 Coeff-Com:  0.163D-01-0.243D-01-0.821D-01-0.332D-01 0.366D+00 0.747D+00
 Coeff:      0.111D-05-0.252D-05-0.142D-04-0.243D-04-0.211D-04 0.878D-04
 Coeff:      0.356D-03 0.215D-03-0.113D-02-0.303D-02 0.456D-03 0.139D-01
 Coeff:      0.163D-01-0.243D-01-0.821D-01-0.332D-01 0.366D+00 0.747D+00
 Gap=     0.138 Goal=   None    Shift=    0.000
 Gap=     0.168 Goal=   None    Shift=    0.000
 RMSDP=4.30D-09 MaxDP=7.55D-07 DE= 1.48D-10 OVMax= 2.32D-06

 Error on total polarization charges =  0.02539
 SCF Done:  E(UM062X) =  -2365.40753897     A.U. after   18 cycles
            NFock= 18  Conv=0.43D-08     -V/T= 2.0041
 <Sx>= 0.0000 <Sy>= 0.0000 <Sz>= 0.5000 <S**2>= 0.7742 S= 0.5121
 <L.S>= 0.000000000000E+00
 KE= 2.355733676935D+03 PE=-1.465615656730D+04 EE= 5.400026530907D+03
 Annihilation of the first spin contaminant:
 S**2 before annihilation     0.7742,   after     0.7505
 Leave Link  502 at Thu Nov  6 09:02:05 2025, MaxMem= 30870077440 cpu:           85580.5 elap:            1354.3
 (Enter /public/software/gauss/g16/l601.exe)
 Copying SCF densities to generalized density rwf, IOpCl= 1 IROHF=0.

 **********************************************************************

            Population analysis using the SCF density.

 **********************************************************************

 Orbital symmetries:
 Alpha Orbitals:
       Occupied  (A) (A) (A) (A) (A) (A) (A) (A) (A) (A) (A) (A)
                 (A) (A) (A) (A) (A) (A) (A) (A) (A) (A) (A) (A)
                 (A) (A) (A) (A) (A) (A) (A) (A) (A) (A) (A) (A)
                 (A) (A) (A) (A) (A) (A) (A) (A) (A) (A) (A) (A)
                 (A) (A) (A) (A) (A) (A) (A) (A) (A) (A) (A) (A)
                 (A) (A) (A) (A) (A) (A) (A) (A) (A) (A) (A) (A)
                 (A) (A) (A) (A) (A) (A) (A) (A) (A) (A) (A) (A)
                 (A) (A) (A) (A) (A) (A) (A) (A) (A) (A) (A) (A)
                 (A) (A) (A) (A) (A) (A) (A) (A) (A) (A) (A) (A)
                 (A) (A) (A) (A) (A) (A) (A) (A) (A) (A) (A) (A)
                 (A) (A) (A) (A) (A) (A) (A) (A) (A) (A) (A) (A)
                 (A) (A) (A) (A) (A) (A) (A) (A) (A) (A) (A)
       Virtual   (A) (A) (A) (A) (A) (A) (A) (A) (A) (A) (A) (A)
                 (A) (A) (A) (A) (A) (A) (A) (A) (A) (A) (A) (A)
                 (A) (A) (A) (A) (A) (A) (A) (A) (A) (A) (A) (A)
                 (A) (A) (A) (A) (A) (A) (A) (A) (A) (A) (A) (A)
                 (A) (A) (A) (A) (A) (A) (A) (A) (A) (A) (A) (A)
                 (A) (A) (A) (A) (A) (A) (A) (A) (A) (A) (A) (A)
                 (A) (A) (A) (A) (A) (A) (A) (A) (A) (A) (A) (A)
                 (A) (A) (A) (A) (A) (A) (A) (A) (A) (A) (A) (A)
                 (A) (A) (A) (A) (A) (A) (A) (A) (A) (A) (A) (A)
                 (A) (A) (A) (A) (A) (A) (A) (A) (A) (A) (A) (A)
                 (A) (A) (A) (A) (A) (A) (A) (A) (A) (A) (A) (A)
                 (A) (A) (A) (A) (A) (A) (A) (A) (A) (A) (A) (A)
                 (A) (A) (A) (A) (A) (A) (A) (A) (A) (A) (A) (A)
                 (A) (A) (A) (A) (A) (A) (A) (A) (A) (A) (A) (A)
                 (A) (A) (A) (A) (A) (A) (A) (A) (A) (A) (A) (A)
                 (A) (A) (A) (A) (A) (A) (A) (A) (A) (A) (A) (A)
                 (A) (A) (A) (A) (A) (A) (A) (A) (A) (A) (A) (A)
                 (A) (A) (A) (A) (A) (A) (A) (A) (A) (A) (A) (A)
                 (A) (A) (A) (A) (A) (A) (A) (A) (A) (A) (A) (A)
                 (A) (A) (A) (A) (A) (A) (A) (A) (A) (A) (A) (A)
                 (A) (A) (A) (A) (A) (A) (A) (A) (A) (A) (A) (A)
                 (A) (A) (A) (A) (A) (A) (A) (A) (A) (A) (A) (A)
                 (A) (A) (A) (A) (A) (A) (A) (A) (A) (A) (A) (A)
                 (A) (A) (A) (A) (A) (A) (A) (A) (A) (A) (A) (A)
                 (A) (A) (A) (A) (A) (A) (A) (A) (A) (A) (A) (A)
                 (A) (A) (A) (A) (A) (A) (A) (A) (A) (A) (A) (A)
                 (A) (A) (A) (A) (A) (A) (A) (A) (A) (A) (A) (A)
                 (A) (A) (A) (A) (A) (A) (A) (A) (A) (A) (A) (A)
                 (A) (A) (A) (A) (A) (A) (A) (A) (A) (A) (A) (A)
                 (A) (A) (A) (A) (A) (A) (A) (A) (A) (A) (A) (A)
                 (A) (A) (A) (A) (A) (A) (A) (A) (A) (A) (A) (A)
                 (A) (A) (A) (A) (A) (A) (A) (A) (A) (A) (A) (A)
                 (A) (A) (A) (A) (A) (A) (A) (A) (A) (A) (A) (A)
                 (A) (A) (A) (A) (A) (A) (A) (A) (A) (A) (A) (A)
                 (A) (A) (A) (A) (A) (A) (A) (A) (A) (A) (A) (A)
                 (A) (A) (A) (A) (A) (A) (A) (A) (A) (A) (A) (A)
                 (A) (A) (A) (A) (A) (A) (A) (A) (A) (A) (A) (A)
                 (A) (A) (A) (A) (A) (A) (A) (A) (A) (A) (A) (A)
                 (A) (A) (A) (A) (A) (A) (A) (A) (A) (A) (A) (A)
                 (A) (A) (A) (A) (A) (A) (A) (A) (A) (A) (A) (A)
                 (A) (A) (A) (A) (A) (A) (A) (A) (A) (A) (A) (A)
                 (A) (A) (A) (A) (A) (A) (A) (A) (A) (A) (A) (A)
                 (A) (A) (A) (A) (A) (A) (A) (A) (A) (A) (A) (A)
                 (A) (A) (A) (A) (A) (A) (A) (A) (A) (A) (A) (A)
                 (A) (A) (A) (A) (A) (A) (A) (A) (A) (A) (A) (A)
                 (A) (A) (A) (A) (A) (A) (A) (A) (A) (A) (A) (A)
                 (A) (A) (A) (A) (A) (A) (A) (A) (A) (A) (A) (A)
                 (A) (A) (A) (A) (A) (A) (A) (A) (A) (A) (A) (A)
                 (A) (A) (A) (A) (A) (A) (A) (A) (A) (A) (A) (A)
                 (A) (A) (A) (A) (A) (A) (A) (A) (A) (A) (A) (A)
                 (A) (A) (A) (A) (A) (A) (A) (A) (A) (A) (A) (A)
                 (A) (A) (A) (A) (A) (A) (A) (A) (A) (A) (A) (A)
                 (A) (A) (A) (A) (A) (A) (A) (A) (A) (A) (A) (A)
                 (A) (A) (A) (A) (A) (A) (A) (A) (A) (A) (A) (A)
                 (A) (A) (A) (A) (A) (A) (A) (A) (A) (A) (A) (A)
                 (A) (A) (A) (A) (A) (A) (A) (A) (A) (A) (A) (A)
                 (A) (A) (A) (A) (A) (A) (A) (A) (A) (A) (A) (A)
                 (A) (A) (A) (A) (A) (A) (A) (A) (A) (A) (A) (A)
                 (A) (A) (A) (A) (A) (A) (A) (A) (A) (A) (A) (A)
                 (A) (A) (A) (A) (A) (A) (A) (A) (A) (A) (A) (A)
                 (A) (A) (A) (A) (A) (A) (A) (A) (A) (A) (A) (A)
                 (A) (A) (A) (A) (A) (A) (A) (A) (A) (A) (A) (A)
                 (A) (A) (A) (A) (A) (A) (A) (A) (A) (A) (A) (A)
                 (A) (A) (A) (A) (A) (A) (A) (A) (A) (A) (A) (A)
                 (A) (A) (A) (A) (A) (A) (A) (A) (A) (A) (A) (A)
                 (A) (A) (A) (A) (A) (A) (A) (A) (A) (A) (A) (A)
                 (A) (A) (A) (A) (A) (A) (A) (A) (A) (A) (A) (A)
                 (A) (A) (A) (A) (A) (A) (A) (A) (A) (A) (A) (A)
                 (A) (A) (A) (A) (A) (A) (A) (A) (A) (A) (A) (A)
                 (A) (A) (A) (A) (A) (A) (A) (A) (A) (A) (A) (A)
                 (A) (A) (A) (A) (A) (A) (A) (A) (A) (A) (A) (A)
                 (A) (A) (A) (A) (A) (A) (A) (A) (A) (A) (A) (A)
                 (A) (A) (A) (A) (A) (A) (A) (A) (A) (A) (A) (A)
                 (A) (A) (A) (A) (A) (A) (A) (A) (A) (A) (A) (A)
                 (A) (A) (A) (A) (A) (A) (A) (A) (A) (A) (A) (A)
                 (A) (A) (A) (A) (A) (A) (A) (A) (A) (A) (A) (A)
                 (A) (A) (A) (A) (A) (A) (A) (A) (A) (A) (A) (A)
                 (A) (A) (A) (A) (A) (A) (A) (A) (A) (A) (A) (A)
                 (A) (A) (A) (A) (A) (A) (A) (A) (A) (A) (A) (A)
                 (A) (A) (A) (A) (A) (A) (A) (A) (A) (A) (A) (A)
                 (A) (A) (A) (A) (A) (A) (A) (A) (A) (A) (A) (A)
                 (A) (A) (A) (A) (A) (A) (A) (A) (A) (A) (A) (A)
                 (A) (A) (A) (A) (A) (A) (A) (A) (A) (A) (A) (A)
                 (A) (A) (A) (A) (A) (A) (A) (A) (A) (A) (A) (A)
                 (A) (A) (A) (A) (A) (A) (A) (A) (A) (A) (A) (A)
                 (A) (A) (A) (A) (A) (A) (A) (A) (A) (A) (A) (A)
                 (A) (A) (A) (A) (A) (A) (A) (A) (A) (A) (A) (A)
                 (A) (A) (A) (A) (A) (A) (A) (A) (A) (A) (A) (A)
                 (A) (A) (A) (A) (A) (A) (A) (A) (A) (A) (A) (A)
                 (A) (A) (A) (A) (A) (A) (A) (A) (A) (A) (A) (A)
                 (A) (A) (A) (A) (A) (A) (A) (A) (A) (A) (A) (A)
                 (A) (A) (A) (A) (A) (A) (A) (A) (A) (A) (A) (A)
                 (A) (A) (A) (A) (A) (A) (A) (A) (A) (A) (A) (A)
                 (A) (A) (A) (A) (A) (A) (A) (A) (A) (A) (A) (A)
                 (A) (A) (A) (A) (A) (A) (A) (A) (A) (A) (A) (A)
                 (A) (A) (A) (A) (A) (A) (A) (A) (A) (A) (A) (A)
                 (A) (A) (A) (A) (A) (A) (A) (A) (A) (A) (A) (A)
                 (A) (A) (A) (A) (A) (A) (A) (A) (A) (A) (A) (A)
                 (A) (A) (A) (A) (A) (A) (A) (A) (A) (A) (A) (A)
                 (A) (A) (A) (A) (A) (A) (A) (A) (A) (A) (A) (A)
                 (A) (A) (A) (A) (A) (A) (A) (A) (A) (A) (A) (A)
                 (A) (A) (A) (A) (A) (A) (A) (A) (A) (A) (A) (A)
                 (A) (A) (A) (A) (A) (A) (A) (A) (A) (A) (A) (A)
                 (A) (A) (A) (A) (A) (A) (A) (A) (A) (A) (A) (A)
                 (A) (A) (A) (A) (A) (A) (A) (A) (A) (A) (A) (A)
                 (A) (A) (A) (A) (A) (A) (A) (A) (A) (A) (A) (A)
                 (A) (A) (A) (A) (A) (A) (A) (A) (A) (A) (A) (A)
                 (A) (A) (A) (A) (A) (A) (A) (A) (A) (A) (A) (A)
                 (A) (A) (A) (A) (A) (A) (A) (A) (A) (A) (A) (A)
                 (A) (A) (A) (A) (A) (A) (A) (A) (A) (A) (A) (A)
                 (A) (A) (A) (A) (A) (A) (A) (A) (A) (A) (A) (A)
                 (A) (A) (A) (A) (A) (A) (A) (A) (A) (A) (A) (A)
                 (A) (A) (A) (A) (A) (A) (A) (A) (A) (A) (A) (A)
                 (A) (A) (A) (A) (A) (A) (A) (A) (A) (A) (A) (A)
                 (A) (A) (A) (A) (A) (A) (A) (A) (A) (A) (A) (A)
                 (A) (A) (A) (A) (A) (A) (A) (A) (A) (A) (A) (A)
                 (A) (A) (A) (A) (A) (A) (A) (A) (A) (A) (A) (A)
                 (A) (A) (A) (A) (A) (A) (A) (A) (A) (A) (A) (A)
                 (A) (A) (A) (A) (A) (A) (A) (A) (A) (A) (A) (A)
                 (A) (A) (A) (A) (A) (A) (A)
 Beta  Orbitals:
       Occupied  (A) (A) (A) (A) (A) (A) (A) (A) (A) (A) (A) (A)
                 (A) (A) (A) (A) (A) (A) (A) (A) (A) (A) (A) (A)
                 (A) (A) (A) (A) (A) (A) (A) (A) (A) (A) (A) (A)
                 (A) (A) (A) (A) (A) (A) (A) (A) (A) (A) (A) (A)
                 (A) (A) (A) (A) (A) (A) (A) (A) (A) (A) (A) (A)
                 (A) (A) (A) (A) (A) (A) (A) (A) (A) (A) (A) (A)
                 (A) (A) (A) (A) (A) (A) (A) (A) (A) (A) (A) (A)
                 (A) (A) (A) (A) (A) (A) (A) (A) (A) (A) (A) (A)
                 (A) (A) (A) (A) (A) (A) (A) (A) (A) (A) (A) (A)
                 (A) (A) (A) (A) (A) (A) (A) (A) (A) (A) (A) (A)
                 (A) (A) (A) (A) (A) (A) (A) (A) (A) (A) (A) (A)
                 (A) (A) (A) (A) (A) (A) (A) (A) (A) (A)
       Virtual   (A) (A) (A) (A) (A) (A) (A) (A) (A) (A) (A) (A)
                 (A) (A) (A) (A) (A) (A) (A) (A) (A) (A) (A) (A)
                 (A) (A) (A) (A) (A) (A) (A) (A) (A) (A) (A) (A)
                 (A) (A) (A) (A) (A) (A) (A) (A) (A) (A) (A) (A)
                 (A) (A) (A) (A) (A) (A) (A) (A) (A) (A) (A) (A)
                 (A) (A) (A) (A) (A) (A) (A) (A) (A) (A) (A) (A)
                 (A) (A) (A) (A) (A) (A) (A) (A) (A) (A) (A) (A)
                 (A) (A) (A) (A) (A) (A) (A) (A) (A) (A) (A) (A)
                 (A) (A) (A) (A) (A) (A) (A) (A) (A) (A) (A) (A)
                 (A) (A) (A) (A) (A) (A) (A) (A) (A) (A) (A) (A)
                 (A) (A) (A) (A) (A) (A) (A) (A) (A) (A) (A) (A)
                 (A) (A) (A) (A) (A) (A) (A) (A) (A) (A) (A) (A)
                 (A) (A) (A) (A) (A) (A) (A) (A) (A) (A) (A) (A)
                 (A) (A) (A) (A) (A) (A) (A) (A) (A) (A) (A) (A)
                 (A) (A) (A) (A) (A) (A) (A) (A) (A) (A) (A) (A)
                 (A) (A) (A) (A) (A) (A) (A) (A) (A) (A) (A) (A)
                 (A) (A) (A) (A) (A) (A) (A) (A) (A) (A) (A) (A)
                 (A) (A) (A) (A) (A) (A) (A) (A) (A) (A) (A) (A)
                 (A) (A) (A) (A) (A) (A) (A) (A) (A) (A) (A) (A)
                 (A) (A) (A) (A) (A) (A) (A) (A) (A) (A) (A) (A)
                 (A) (A) (A) (A) (A) (A) (A) (A) (A) (A) (A) (A)
                 (A) (A) (A) (A) (A) (A) (A) (A) (A) (A) (A) (A)
                 (A) (A) (A) (A) (A) (A) (A) (A) (A) (A) (A) (A)
                 (A) (A) (A) (A) (A) (A) (A) (A) (A) (A) (A) (A)
                 (A) (A) (A) (A) (A) (A) (A) (A) (A) (A) (A) (A)
                 (A) (A) (A) (A) (A) (A) (A) (A) (A) (A) (A) (A)
                 (A) (A) (A) (A) (A) (A) (A) (A) (A) (A) (A) (A)
                 (A) (A) (A) (A) (A) (A) (A) (A) (A) (A) (A) (A)
                 (A) (A) (A) (A) (A) (A) (A) (A) (A) (A) (A) (A)
                 (A) (A) (A) (A) (A) (A) (A) (A) (A) (A) (A) (A)
                 (A) (A) (A) (A) (A) (A) (A) (A) (A) (A) (A) (A)
                 (A) (A) (A) (A) (A) (A) (A) (A) (A) (A) (A) (A)
                 (A) (A) (A) (A) (A) (A) (A) (A) (A) (A) (A) (A)
                 (A) (A) (A) (A) (A) (A) (A) (A) (A) (A) (A) (A)
                 (A) (A) (A) (A) (A) (A) (A) (A) (A) (A) (A) (A)
                 (A) (A) (A) (A) (A) (A) (A) (A) (A) (A) (A) (A)
                 (A) (A) (A) (A) (A) (A) (A) (A) (A) (A) (A) (A)
                 (A) (A) (A) (A) (A) (A) (A) (A) (A) (A) (A) (A)
                 (A) (A) (A) (A) (A) (A) (A) (A) (A) (A) (A) (A)
                 (A) (A) (A) (A) (A) (A) (A) (A) (A) (A) (A) (A)
                 (A) (A) (A) (A) (A) (A) (A) (A) (A) (A) (A) (A)
                 (A) (A) (A) (A) (A) (A) (A) (A) (A) (A) (A) (A)
                 (A) (A) (A) (A) (A) (A) (A) (A) (A) (A) (A) (A)
                 (A) (A) (A) (A) (A) (A) (A) (A) (A) (A) (A) (A)
                 (A) (A) (A) (A) (A) (A) (A) (A) (A) (A) (A) (A)
                 (A) (A) (A) (A) (A) (A) (A) (A) (A) (A) (A) (A)
                 (A) (A) (A) (A) (A) (A) (A) (A) (A) (A) (A) (A)
                 (A) (A) (A) (A) (A) (A) (A) (A) (A) (A) (A) (A)
                 (A) (A) (A) (A) (A) (A) (A) (A) (A) (A) (A) (A)
                 (A) (A) (A) (A) (A) (A) (A) (A) (A) (A) (A) (A)
                 (A) (A) (A) (A) (A) (A) (A) (A) (A) (A) (A) (A)
                 (A) (A) (A) (A) (A) (A) (A) (A) (A) (A) (A) (A)
                 (A) (A) (A) (A) (A) (A) (A) (A) (A) (A) (A) (A)
                 (A) (A) (A) (A) (A) (A) (A) (A) (A) (A) (A) (A)
                 (A) (A) (A) (A) (A) (A) (A) (A) (A) (A) (A) (A)
                 (A) (A) (A) (A) (A) (A) (A) (A) (A) (A) (A) (A)
                 (A) (A) (A) (A) (A) (A) (A) (A) (A) (A) (A) (A)
                 (A) (A) (A) (A) (A) (A) (A) (A) (A) (A) (A) (A)
                 (A) (A) (A) (A) (A) (A) (A) (A) (A) (A) (A) (A)
                 (A) (A) (A) (A) (A) (A) (A) (A) (A) (A) (A) (A)
                 (A) (A) (A) (A) (A) (A) (A) (A) (A) (A) (A) (A)
                 (A) (A) (A) (A) (A) (A) (A) (A) (A) (A) (A) (A)
                 (A) (A) (A) (A) (A) (A) (A) (A) (A) (A) (A) (A)
                 (A) (A) (A) (A) (A) (A) (A) (A) (A) (A) (A) (A)
                 (A) (A) (A) (A) (A) (A) (A) (A) (A) (A) (A) (A)
                 (A) (A) (A) (A) (A) (A) (A) (A) (A) (A) (A) (A)
                 (A) (A) (A) (A) (A) (A) (A) (A) (A) (A) (A) (A)
                 (A) (A) (A) (A) (A) (A) (A) (A) (A) (A) (A) (A)
                 (A) (A) (A) (A) (A) (A) (A) (A) (A) (A) (A) (A)
                 (A) (A) (A) (A) (A) (A) (A) (A) (A) (A) (A) (A)
                 (A) (A) (A) (A) (A) (A) (A) (A) (A) (A) (A) (A)
                 (A) (A) (A) (A) (A) (A) (A) (A) (A) (A) (A) (A)
                 (A) (A) (A) (A) (A) (A) (A) (A) (A) (A) (A) (A)
                 (A) (A) (A) (A) (A) (A) (A) (A) (A) (A) (A) (A)
                 (A) (A) (A) (A) (A) (A) (A) (A) (A) (A) (A) (A)
                 (A) (A) (A) (A) (A) (A) (A) (A) (A) (A) (A) (A)
                 (A) (A) (A) (A) (A) (A) (A) (A) (A) (A) (A) (A)
                 (A) (A) (A) (A) (A) (A) (A) (A) (A) (A) (A) (A)
                 (A) (A) (A) (A) (A) (A) (A) (A) (A) (A) (A) (A)
                 (A) (A) (A) (A) (A) (A) (A) (A) (A) (A) (A) (A)
                 (A) (A) (A) (A) (A) (A) (A) (A) (A) (A) (A) (A)
                 (A) (A) (A) (A) (A) (A) (A) (A) (A) (A) (A) (A)
                 (A) (A) (A) (A) (A) (A) (A) (A) (A) (A) (A) (A)
                 (A) (A) (A) (A) (A) (A) (A) (A) (A) (A) (A) (A)
                 (A) (A) (A) (A) (A) (A) (A) (A) (A) (A) (A) (A)
                 (A) (A) (A) (A) (A) (A) (A) (A) (A) (A) (A) (A)
                 (A) (A) (A) (A) (A) (A) (A) (A) (A) (A) (A) (A)
                 (A) (A) (A) (A) (A) (A) (A) (A) (A) (A) (A) (A)
                 (A) (A) (A) (A) (A) (A) (A) (A) (A) (A) (A) (A)
                 (A) (A) (A) (A) (A) (A) (A) (A) (A) (A) (A) (A)
                 (A) (A) (A) (A) (A) (A) (A) (A) (A) (A) (A) (A)
                 (A) (A) (A) (A) (A) (A) (A) (A) (A) (A) (A) (A)
                 (A) (A) (A) (A) (A) (A) (A) (A) (A) (A) (A) (A)
                 (A) (A) (A) (A) (A) (A) (A) (A) (A) (A) (A) (A)
                 (A) (A) (A) (A) (A) (A) (A) (A) (A) (A) (A) (A)
                 (A) (A) (A) (A) (A) (A) (A) (A) (A) (A) (A) (A)
                 (A) (A) (A) (A) (A) (A) (A) (A) (A) (A) (A) (A)
                 (A) (A) (A) (A) (A) (A) (A) (A) (A) (A) (A) (A)
                 (A) (A) (A) (A) (A) (A) (A) (A) (A) (A) (A) (A)
                 (A) (A) (A) (A) (A) (A) (A) (A) (A) (A) (A) (A)
                 (A) (A) (A) (A) (A) (A) (A) (A) (A) (A) (A) (A)
                 (A) (A) (A) (A) (A) (A) (A) (A) (A) (A) (A) (A)
                 (A) (A) (A) (A) (A) (A) (A) (A) (A) (A) (A) (A)
                 (A) (A) (A) (A) (A) (A) (A) (A) (A) (A) (A) (A)
                 (A) (A) (A) (A) (A) (A) (A) (A) (A) (A) (A) (A)
                 (A) (A) (A) (A) (A) (A) (A) (A) (A) (A) (A) (A)
                 (A) (A) (A) (A) (A) (A) (A) (A) (A) (A) (A) (A)
                 (A) (A) (A) (A) (A) (A) (A) (A) (A) (A) (A) (A)
                 (A) (A) (A) (A) (A) (A) (A) (A) (A) (A) (A) (A)
                 (A) (A) (A) (A) (A) (A) (A) (A) (A) (A) (A) (A)
                 (A) (A) (A) (A) (A) (A) (A) (A) (A) (A) (A) (A)
                 (A) (A) (A) (A) (A) (A) (A) (A) (A) (A) (A) (A)
                 (A) (A) (A) (A) (A) (A) (A) (A) (A) (A) (A) (A)
                 (A) (A) (A) (A) (A) (A) (A) (A) (A) (A) (A) (A)
                 (A) (A) (A) (A) (A) (A) (A) (A) (A) (A) (A) (A)
                 (A) (A) (A) (A) (A) (A) (A) (A) (A) (A) (A) (A)
                 (A) (A) (A) (A) (A) (A) (A) (A) (A) (A) (A) (A)
                 (A) (A) (A) (A) (A) (A) (A) (A) (A) (A) (A) (A)
                 (A) (A) (A) (A) (A) (A) (A) (A) (A) (A) (A) (A)
                 (A) (A) (A) (A) (A) (A) (A) (A)
 The electronic state is 2-A.
 Alpha  occ. eigenvalues --  -89.93626 -89.92187 -25.18647 -25.18234 -19.62339
 Alpha  occ. eigenvalues --  -14.75726 -14.75591 -10.63094 -10.59321 -10.57966
 Alpha  occ. eigenvalues --  -10.57378 -10.57060 -10.56987 -10.56809 -10.56418
 Alpha  occ. eigenvalues --  -10.56317 -10.55671 -10.55513 -10.55073 -10.54936
 Alpha  occ. eigenvalues --  -10.54840 -10.54683 -10.54401 -10.54382 -10.54283
 Alpha  occ. eigenvalues --  -10.54266 -10.54234 -10.53665 -10.53399 -10.53333
 Alpha  occ. eigenvalues --  -10.53327 -10.53046 -10.52895 -10.52879 -10.52836
 Alpha  occ. eigenvalues --  -10.51926 -10.51852  -8.29366  -8.27939  -7.10881
 Alpha  occ. eigenvalues --   -6.21267  -6.21076  -6.20965  -6.19850  -6.19672
 Alpha  occ. eigenvalues --   -6.19530  -1.30178  -1.26979  -1.15843  -1.07487
 Alpha  occ. eigenvalues --   -1.05554  -0.98869  -0.97338  -0.96364  -0.90707
 Alpha  occ. eigenvalues --   -0.89076  -0.88731  -0.88085  -0.87553  -0.85008
 Alpha  occ. eigenvalues --   -0.84256  -0.83616  -0.83376  -0.81242  -0.80561
 Alpha  occ. eigenvalues --   -0.79298  -0.79089  -0.75926  -0.74590  -0.72262
 Alpha  occ. eigenvalues --   -0.71188  -0.70329  -0.68727  -0.68088  -0.65825
 Alpha  occ. eigenvalues --   -0.65435  -0.64000  -0.63257  -0.62283  -0.61212
 Alpha  occ. eigenvalues --   -0.60282  -0.58896  -0.58425  -0.57901  -0.56926
 Alpha  occ. eigenvalues --   -0.56692  -0.56191  -0.55136  -0.53685  -0.52853
 Alpha  occ. eigenvalues --   -0.52748  -0.52186  -0.51918  -0.51610  -0.50830
 Alpha  occ. eigenvalues --   -0.50328  -0.50164  -0.49655  -0.49282  -0.49009
 Alpha  occ. eigenvalues --   -0.48674  -0.48481  -0.48191  -0.48027  -0.47364
 Alpha  occ. eigenvalues --   -0.46641  -0.46433  -0.46100  -0.45840  -0.45445
 Alpha  occ. eigenvalues --   -0.45059  -0.44838  -0.44499  -0.44281  -0.44181
 Alpha  occ. eigenvalues --   -0.44070  -0.43349  -0.42564  -0.42467  -0.42152
 Alpha  occ. eigenvalues --   -0.41990  -0.41535  -0.41441  -0.41117  -0.41033
 Alpha  occ. eigenvalues --   -0.40332  -0.40041  -0.39823  -0.39355  -0.38751
 Alpha  occ. eigenvalues --   -0.38123  -0.35456  -0.33446  -0.31335  -0.31118
 Alpha  occ. eigenvalues --   -0.30641  -0.30146  -0.30089  -0.29553  -0.28893
 Alpha  occ. eigenvalues --   -0.28046  -0.24150  -0.17451
 Alpha virt. eigenvalues --   -0.03612   0.00469   0.01741   0.01893   0.03294
 Alpha virt. eigenvalues --    0.04399   0.05201   0.05987   0.06531   0.07296
 Alpha virt. eigenvalues --    0.07504   0.08262   0.08912   0.09202   0.09442
 Alpha virt. eigenvalues --    0.09854   0.09965   0.10476   0.10736   0.11070
 Alpha virt. eigenvalues --    0.11112   0.11496   0.11632   0.12107   0.12278
 Alpha virt. eigenvalues --    0.12393   0.13107   0.13307   0.13437   0.13671
 Alpha virt. eigenvalues --    0.14025   0.14341   0.14538   0.14787   0.15087
 Alpha virt. eigenvalues --    0.15141   0.15319   0.15825   0.16176   0.16286
 Alpha virt. eigenvalues --    0.16343   0.17082   0.17313   0.17400   0.17608
 Alpha virt. eigenvalues --    0.18300   0.18813   0.19037   0.19502   0.19556
 Alpha virt. eigenvalues --    0.19932   0.20064   0.20747   0.20857   0.21510
 Alpha virt. eigenvalues --    0.21779   0.21971   0.22477   0.22562   0.22735
 Alpha virt. eigenvalues --    0.22931   0.23157   0.23226   0.23418   0.23715
 Alpha virt. eigenvalues --    0.24248   0.24427   0.24560   0.24712   0.25114
 Alpha virt. eigenvalues --    0.25419   0.25630   0.26066   0.26178   0.26603
 Alpha virt. eigenvalues --    0.26703   0.27037   0.27078   0.27440   0.27812
 Alpha virt. eigenvalues --    0.28050   0.28296   0.28784   0.29259   0.29497
 Alpha virt. eigenvalues --    0.29699   0.29899   0.30097   0.30193   0.30493
 Alpha virt. eigenvalues --    0.30780   0.31173   0.31502   0.31931   0.32070
 Alpha virt. eigenvalues --    0.32349   0.32584   0.32904   0.33191   0.33401
 Alpha virt. eigenvalues --    0.33658   0.33982   0.34365   0.35064   0.35161
 Alpha virt. eigenvalues --    0.35361   0.35535   0.36002   0.36347   0.36738
 Alpha virt. eigenvalues --    0.36879   0.37185   0.37507   0.37769   0.37784
 Alpha virt. eigenvalues --    0.38218   0.38507   0.38575   0.39071   0.39196
 Alpha virt. eigenvalues --    0.39397   0.39799   0.40206   0.40367   0.40943
 Alpha virt. eigenvalues --    0.41125   0.41156   0.41518   0.41590   0.41820
 Alpha virt. eigenvalues --    0.42066   0.42544   0.42846   0.42981   0.43293
 Alpha virt. eigenvalues --    0.43373   0.43813   0.43864   0.44028   0.44110
 Alpha virt. eigenvalues --    0.44470   0.44675   0.44707   0.44945   0.45279
 Alpha virt. eigenvalues --    0.45385   0.45532   0.45901   0.46050   0.46146
 Alpha virt. eigenvalues --    0.46364   0.46769   0.47102   0.47247   0.47294
 Alpha virt. eigenvalues --    0.47583   0.47769   0.48023   0.48282   0.48481
 Alpha virt. eigenvalues --    0.48728   0.49139   0.49225   0.49367   0.49666
 Alpha virt. eigenvalues --    0.49779   0.50067   0.50439   0.50807   0.51054
 Alpha virt. eigenvalues --    0.51387   0.51452   0.51631   0.51936   0.52375
 Alpha virt. eigenvalues --    0.52529   0.52661   0.52857   0.53118   0.53402
 Alpha virt. eigenvalues --    0.53760   0.53935   0.54120   0.54571   0.54889
 Alpha virt. eigenvalues --    0.55028   0.55315   0.55481   0.55680   0.56190
 Alpha virt. eigenvalues --    0.56742   0.57175   0.57315   0.57859   0.58110
 Alpha virt. eigenvalues --    0.58483   0.58523   0.58717   0.59473   0.59579
 Alpha virt. eigenvalues --    0.59968   0.60415   0.61249   0.61486   0.61555
 Alpha virt. eigenvalues --    0.61993   0.62238   0.62460   0.63005   0.63158
 Alpha virt. eigenvalues --    0.63384   0.63883   0.64325   0.64638   0.64908
 Alpha virt. eigenvalues --    0.65281   0.65489   0.65750   0.66063   0.66169
 Alpha virt. eigenvalues --    0.66596   0.67507   0.67657   0.68083   0.68289
 Alpha virt. eigenvalues --    0.68521   0.68889   0.69312   0.69733   0.69979
 Alpha virt. eigenvalues --    0.70240   0.70886   0.71174   0.71353   0.71682
 Alpha virt. eigenvalues --    0.71818   0.72623   0.72921   0.73167   0.73533
 Alpha virt. eigenvalues --    0.73616   0.73894   0.74148   0.74387   0.74694
 Alpha virt. eigenvalues --    0.74933   0.75423   0.75596   0.75699   0.76123
 Alpha virt. eigenvalues --    0.76640   0.76896   0.77096   0.77896   0.78169
 Alpha virt. eigenvalues --    0.78509   0.79361   0.79546   0.80049   0.80517
 Alpha virt. eigenvalues --    0.81012   0.81358   0.81697   0.81806   0.82087
 Alpha virt. eigenvalues --    0.82954   0.83099   0.83497   0.84099   0.84435
 Alpha virt. eigenvalues --    0.84805   0.84981   0.85473   0.85902   0.86061
 Alpha virt. eigenvalues --    0.86514   0.87126   0.87525   0.87624   0.88083
 Alpha virt. eigenvalues --    0.88276   0.88605   0.88872   0.89188   0.89426
 Alpha virt. eigenvalues --    0.89844   0.90151   0.90964   0.91203   0.91222
 Alpha virt. eigenvalues --    0.91911   0.92180   0.92309   0.93002   0.93174
 Alpha virt. eigenvalues --    0.93449   0.93561   0.94675   0.94838   0.95233
 Alpha virt. eigenvalues --    0.95449   0.95784   0.96063   0.96266   0.96592
 Alpha virt. eigenvalues --    0.97262   0.97746   0.97952   0.98184   0.98575
 Alpha virt. eigenvalues --    0.98703   0.98956   0.99469   0.99576   1.00001
 Alpha virt. eigenvalues --    1.00220   1.00637   1.00906   1.01220   1.01489
 Alpha virt. eigenvalues --    1.02033   1.02298   1.02338   1.02510   1.02774
 Alpha virt. eigenvalues --    1.02985   1.03352   1.03612   1.04044   1.04482
 Alpha virt. eigenvalues --    1.04838   1.05328   1.05496   1.05842   1.06327
 Alpha virt. eigenvalues --    1.06395   1.06497   1.07790   1.07946   1.08269
 Alpha virt. eigenvalues --    1.08429   1.08651   1.08819   1.09222   1.09505
 Alpha virt. eigenvalues --    1.09962   1.10274   1.10524   1.10880   1.11088
 Alpha virt. eigenvalues --    1.11269   1.12105   1.12239   1.12660   1.12801
 Alpha virt. eigenvalues --    1.13108   1.13400   1.13840   1.14012   1.15027
 Alpha virt. eigenvalues --    1.15273   1.15480   1.15756   1.16120   1.16344
 Alpha virt. eigenvalues --    1.17193   1.17768   1.18237   1.18376   1.18773
 Alpha virt. eigenvalues --    1.18906   1.19075   1.19640   1.19909   1.20319
 Alpha virt. eigenvalues --    1.20579   1.21198   1.21540   1.21671   1.21877
 Alpha virt. eigenvalues --    1.22275   1.22474   1.22831   1.23053   1.23316
 Alpha virt. eigenvalues --    1.23746   1.24428   1.24783   1.25082   1.25278
 Alpha virt. eigenvalues --    1.25380   1.25760   1.26328   1.26881   1.26938
 Alpha virt. eigenvalues --    1.27269   1.28070   1.28339   1.28778   1.29632
 Alpha virt. eigenvalues --    1.29931   1.30316   1.30720   1.30977   1.31597
 Alpha virt. eigenvalues --    1.31979   1.32501   1.32874   1.33164   1.33649
 Alpha virt. eigenvalues --    1.33788   1.34228   1.34596   1.34969   1.35348
 Alpha virt. eigenvalues --    1.35687   1.35787   1.36188   1.37221   1.37295
 Alpha virt. eigenvalues --    1.37760   1.38030   1.38434   1.39100   1.39427
 Alpha virt. eigenvalues --    1.39773   1.40249   1.40729   1.40865   1.41400
 Alpha virt. eigenvalues --    1.41870   1.42179   1.42828   1.43003   1.43551
 Alpha virt. eigenvalues --    1.43956   1.43987   1.44412   1.44587   1.44838
 Alpha virt. eigenvalues --    1.45326   1.45468   1.45620   1.46132   1.46265
 Alpha virt. eigenvalues --    1.47044   1.47199   1.47792   1.48220   1.48437
 Alpha virt. eigenvalues --    1.48616   1.48851   1.48899   1.49213   1.49665
 Alpha virt. eigenvalues --    1.49811   1.50362   1.50685   1.50788   1.51077
 Alpha virt. eigenvalues --    1.51221   1.51781   1.51928   1.52075   1.52473
 Alpha virt. eigenvalues --    1.52710   1.52806   1.53213   1.53395   1.53535
 Alpha virt. eigenvalues --    1.53888   1.54441   1.54569   1.55242   1.55494
 Alpha virt. eigenvalues --    1.55664   1.56343   1.56517   1.56716   1.57128
 Alpha virt. eigenvalues --    1.57636   1.58218   1.58369   1.58686   1.59135
 Alpha virt. eigenvalues --    1.59559   1.59952   1.60158   1.60428   1.60824
 Alpha virt. eigenvalues --    1.61353   1.61510   1.61908   1.62088   1.62520
 Alpha virt. eigenvalues --    1.62979   1.63096   1.63457   1.63849   1.63952
 Alpha virt. eigenvalues --    1.64320   1.64532   1.65359   1.65767   1.65910
 Alpha virt. eigenvalues --    1.66236   1.66756   1.66838   1.67062   1.67600
 Alpha virt. eigenvalues --    1.68134   1.68776   1.68986   1.69550   1.69677
 Alpha virt. eigenvalues --    1.70098   1.70955   1.71406   1.72183   1.72340
 Alpha virt. eigenvalues --    1.72678   1.72993   1.73230   1.73817   1.74502
 Alpha virt. eigenvalues --    1.74974   1.76005   1.76144   1.76633   1.77244
 Alpha virt. eigenvalues --    1.77349   1.77482   1.78138   1.78974   1.79667
 Alpha virt. eigenvalues --    1.79970   1.80649   1.81753   1.82743   1.83029
 Alpha virt. eigenvalues --    1.83338   1.83972   1.84549   1.84856   1.85204
 Alpha virt. eigenvalues --    1.85576   1.86587   1.86894   1.87155   1.87459
 Alpha virt. eigenvalues --    1.88133   1.88454   1.88941   1.89280   1.89805
 Alpha virt. eigenvalues --    1.90364   1.91097   1.92143   1.92503   1.92850
 Alpha virt. eigenvalues --    1.93182   1.94098   1.94423   1.94915   1.95043
 Alpha virt. eigenvalues --    1.96119   1.96436   1.96485   1.97115   1.97773
 Alpha virt. eigenvalues --    1.98032   1.98236   1.98876   1.99524   2.00469
 Alpha virt. eigenvalues --    2.00487   2.01366   2.01607   2.02456   2.02692
 Alpha virt. eigenvalues --    2.02972   2.03617   2.04201   2.04682   2.04982
 Alpha virt. eigenvalues --    2.05435   2.06407   2.06929   2.07047   2.07695
 Alpha virt. eigenvalues --    2.08443   2.09244   2.10211   2.10646   2.10918
 Alpha virt. eigenvalues --    2.11477   2.11769   2.12283   2.13336   2.13736
 Alpha virt. eigenvalues --    2.14015   2.14457   2.14646   2.15230   2.15523
 Alpha virt. eigenvalues --    2.16368   2.17060   2.17733   2.18093   2.18659
 Alpha virt. eigenvalues --    2.19388   2.19734   2.19879   2.20738   2.20995
 Alpha virt. eigenvalues --    2.21660   2.22159   2.22870   2.22975   2.23365
 Alpha virt. eigenvalues --    2.24178   2.25094   2.25600   2.26343   2.27001
 Alpha virt. eigenvalues --    2.27425   2.27782   2.29005   2.29394   2.30082
 Alpha virt. eigenvalues --    2.30730   2.31805   2.32221   2.33112   2.33550
 Alpha virt. eigenvalues --    2.34232   2.34776   2.35044   2.35538   2.36510
 Alpha virt. eigenvalues --    2.36858   2.37455   2.38465   2.38861   2.39483
 Alpha virt. eigenvalues --    2.40183   2.40575   2.40969   2.41841   2.42388
 Alpha virt. eigenvalues --    2.42821   2.43633   2.44071   2.44807   2.45269
 Alpha virt. eigenvalues --    2.45900   2.46586   2.46669   2.47258   2.47896
 Alpha virt. eigenvalues --    2.49223   2.49562   2.50199   2.51251   2.52192
 Alpha virt. eigenvalues --    2.52664   2.52802   2.53193   2.54243   2.54678
 Alpha virt. eigenvalues --    2.55394   2.56192   2.56468   2.56981   2.57559
 Alpha virt. eigenvalues --    2.57760   2.58226   2.58414   2.58840   2.59224
 Alpha virt. eigenvalues --    2.59356   2.59598   2.60274   2.60868   2.61556
 Alpha virt. eigenvalues --    2.61760   2.62305   2.62887   2.63427   2.64784
 Alpha virt. eigenvalues --    2.65279   2.65436   2.66469   2.66623   2.66991
 Alpha virt. eigenvalues --    2.67539   2.67868   2.68925   2.69552   2.70117
 Alpha virt. eigenvalues --    2.70739   2.70985   2.71784   2.72514   2.72569
 Alpha virt. eigenvalues --    2.73122   2.73562   2.73841   2.74438   2.74724
 Alpha virt. eigenvalues --    2.75366   2.75602   2.75995   2.76576   2.77201
 Alpha virt. eigenvalues --    2.77671   2.78309   2.78360   2.78966   2.79121
 Alpha virt. eigenvalues --    2.79675   2.80040   2.80344   2.80890   2.81451
 Alpha virt. eigenvalues --    2.81781   2.81913   2.82334   2.82471   2.83148
 Alpha virt. eigenvalues --    2.83348   2.83798   2.83869   2.84596   2.84835
 Alpha virt. eigenvalues --    2.85076   2.85588   2.85888   2.86261   2.86939
 Alpha virt. eigenvalues --    2.87505   2.87610   2.88146   2.88357   2.88944
 Alpha virt. eigenvalues --    2.89492   2.90322   2.90558   2.90712   2.91120
 Alpha virt. eigenvalues --    2.91437   2.92011   2.92268   2.92669   2.92994
 Alpha virt. eigenvalues --    2.93112   2.93445   2.94296   2.94842   2.95069
 Alpha virt. eigenvalues --    2.95219   2.95607   2.95990   2.96455   2.96851
 Alpha virt. eigenvalues --    2.96913   2.97174   2.97755   2.98187   2.98333
 Alpha virt. eigenvalues --    2.98691   2.99329   2.99561   2.99650   3.00236
 Alpha virt. eigenvalues --    3.00814   3.00968   3.01114   3.01603   3.01804
 Alpha virt. eigenvalues --    3.02209   3.02445   3.03018   3.03243   3.03441
 Alpha virt. eigenvalues --    3.03551   3.03904   3.04385   3.04607   3.04730
 Alpha virt. eigenvalues --    3.04949   3.05262   3.05570   3.06144   3.06333
 Alpha virt. eigenvalues --    3.06612   3.06870   3.07201   3.07478   3.07548
 Alpha virt. eigenvalues --    3.08017   3.08539   3.08890   3.09119   3.09272
 Alpha virt. eigenvalues --    3.09509   3.09621   3.10004   3.10237   3.10672
 Alpha virt. eigenvalues --    3.10855   3.11176   3.11755   3.12041   3.12314
 Alpha virt. eigenvalues --    3.12435   3.13060   3.13460   3.13776   3.14135
 Alpha virt. eigenvalues --    3.14543   3.14691   3.15014   3.15261   3.15282
 Alpha virt. eigenvalues --    3.15675   3.15884   3.16413   3.16953   3.17234
 Alpha virt. eigenvalues --    3.17411   3.17661   3.17865   3.18008   3.18317
 Alpha virt. eigenvalues --    3.18548   3.18645   3.19126   3.19235   3.19672
 Alpha virt. eigenvalues --    3.19873   3.20407   3.20665   3.20904   3.21036
 Alpha virt. eigenvalues --    3.21355   3.21497   3.22130   3.22338   3.22723
 Alpha virt. eigenvalues --    3.22871   3.23391   3.23650   3.24054   3.24718
 Alpha virt. eigenvalues --    3.24909   3.25135   3.26001   3.26242   3.26513
 Alpha virt. eigenvalues --    3.26950   3.27231   3.27544   3.27904   3.28569
 Alpha virt. eigenvalues --    3.28824   3.29234   3.29340   3.29673   3.30324
 Alpha virt. eigenvalues --    3.30647   3.31059   3.31247   3.31925   3.32347
 Alpha virt. eigenvalues --    3.32429   3.32786   3.32903   3.33321   3.33577
 Alpha virt. eigenvalues --    3.33800   3.34070   3.34785   3.34988   3.35320
 Alpha virt. eigenvalues --    3.35850   3.35852   3.36560   3.36817   3.37084
 Alpha virt. eigenvalues --    3.37243   3.37622   3.37940   3.38245   3.38894
 Alpha virt. eigenvalues --    3.39258   3.39462   3.39819   3.40069   3.40329
 Alpha virt. eigenvalues --    3.40686   3.41080   3.41173   3.41547   3.42195
 Alpha virt. eigenvalues --    3.42399   3.42953   3.43429   3.43743   3.44066
 Alpha virt. eigenvalues --    3.44736   3.45100   3.45342   3.45820   3.45970
 Alpha virt. eigenvalues --    3.46269   3.46658   3.47129   3.47664   3.48031
 Alpha virt. eigenvalues --    3.48437   3.49343   3.49580   3.49898   3.50119
 Alpha virt. eigenvalues --    3.50562   3.50844   3.50910   3.51186   3.51653
 Alpha virt. eigenvalues --    3.52180   3.52805   3.52978   3.53140   3.53658
 Alpha virt. eigenvalues --    3.53816   3.54316   3.54467   3.55032   3.55626
 Alpha virt. eigenvalues --    3.56053   3.56773   3.56883   3.57233   3.57403
 Alpha virt. eigenvalues --    3.57503   3.57940   3.58440   3.58768   3.59041
 Alpha virt. eigenvalues --    3.59549   3.59946   3.60100   3.60549   3.60855
 Alpha virt. eigenvalues --    3.61247   3.61398   3.61725   3.62208   3.62429
 Alpha virt. eigenvalues --    3.63035   3.63377   3.63520   3.63864   3.64134
 Alpha virt. eigenvalues --    3.64773   3.65380   3.66118   3.66336   3.66531
 Alpha virt. eigenvalues --    3.66780   3.67173   3.68344   3.68643   3.69035
 Alpha virt. eigenvalues --    3.69145   3.69916   3.70287   3.70508   3.71051
 Alpha virt. eigenvalues --    3.71416   3.71977   3.73108   3.73339   3.73773
 Alpha virt. eigenvalues --    3.74233   3.74542   3.74631   3.75048   3.75341
 Alpha virt. eigenvalues --    3.75849   3.75975   3.76765   3.77057   3.77873
[...]
 --------------------------------------------------------


 ---------------------------------------------------------------------------------
              Anisotropic Spin Dipole Couplings in Principal Axis System
 ---------------------------------------------------------------------------------

       Atom             a.u.   MegaHertz   Gauss  10(-4) cm-1        Axes

              Baa    -0.0017    -0.226    -0.081    -0.075  0.1197  0.2389  0.9636
     1 C(13)  Bbb    -0.0012    -0.167    -0.060    -0.056  0.8635  0.4539 -0.2198
              Bcc     0.0029     0.393     0.140     0.131 -0.4899  0.8584 -0.1520
 
              Baa    -0.0010    -0.128    -0.046    -0.043  0.2774  0.8528  0.4425
     2 C(13)  Bbb    -0.0004    -0.060    -0.021    -0.020 -0.0939 -0.4343  0.8959
              Bcc     0.0014     0.188     0.067     0.063  0.9561 -0.2901 -0.0404
 
              Baa    -0.0228    -3.056    -1.090    -1.019 -0.1975  0.8021  0.5635
     3 C(13)  Bbb    -0.0211    -2.827    -1.009    -0.943  0.9579  0.2800 -0.0628
              Bcc     0.0438     5.883     2.099     1.962  0.2082 -0.5274  0.8237
 
              Baa    -0.0138    -1.858    -0.663    -0.620  0.1433 -0.6363  0.7580
     4 C(13)  Bbb     0.0059     0.793     0.283     0.265  0.3200  0.7546  0.5729
              Bcc     0.0079     1.065     0.380     0.355  0.9365 -0.1605 -0.3118
 
              Baa    -0.0292    -3.919    -1.398    -1.307 -0.3156  0.6263  0.7129
     5 C(13)  Bbb    -0.0266    -3.574    -1.275    -1.192  0.9486  0.1897  0.2532
              Bcc     0.0558     7.493     2.674     2.499  0.0233  0.7562 -0.6539
 
              Baa    -0.0343    -4.596    -1.640    -1.533  0.0730 -0.5605  0.8250
     6 C(13)  Bbb     0.0121     1.626     0.580     0.542 -0.3909  0.7449  0.5407
              Bcc     0.0221     2.970     1.060     0.991  0.9175  0.3620  0.1647
 
              Baa    -0.1028   -13.794    -4.922    -4.601 -0.6903  0.7235 -0.0106
     7 C(13)  Bbb    -0.1005   -13.483    -4.811    -4.497  0.7219  0.6896  0.0573
              Bcc     0.2033    27.277     9.733     9.099 -0.0488 -0.0318  0.9983
 
              Baa    -0.0588    -2.266    -0.809    -0.756 -0.5988  0.8009  0.0040
     8 N(14)  Bbb    -0.0483    -1.862    -0.665    -0.621  0.8009  0.5988 -0.0000
              Bcc     0.1071     4.129     1.473     1.377  0.0024 -0.0032  1.0000
 
              Baa    -0.0921   -12.361    -4.411    -4.123 -0.0818 -0.0164  0.9965
     9 C(13)  Bbb     0.0386     5.176     1.847     1.727  0.4307  0.9011  0.0502
              Bcc     0.0535     7.185     2.564     2.397  0.8988 -0.4333  0.0667
 
              Baa    -0.2650   -35.558   -12.688   -11.861 -0.6370  0.7684 -0.0609
    10 C(13)  Bbb    -0.2626   -35.234   -12.572   -11.753  0.7636  0.6399  0.0869
              Bcc     0.5275    70.792    25.260    23.614 -0.1057 -0.0089  0.9944
 
              Baa    -0.0323    -4.337    -1.547    -1.447  0.2510 -0.5796  0.7752
    11 C(13)  Bbb     0.0146     1.956     0.698     0.652 -0.5464  0.5763  0.6078
              Bcc     0.0177     2.381     0.850     0.794  0.7990  0.5761  0.1720
 
              Baa    -0.0280    -3.753    -1.339    -1.252  0.1315  0.5991  0.7898
    12 C(13)  Bbb    -0.0204    -2.742    -0.978    -0.915  0.7653  0.4451 -0.4650
              Bcc     0.0484     6.495     2.318     2.166 -0.6301  0.6656 -0.4000
 
              Baa    -0.0181    -2.425    -0.865    -0.809  0.3315 -0.6418  0.6915
    13 C(13)  Bbb     0.0064     0.861     0.307     0.287 -0.3450  0.5998  0.7220
              Bcc     0.0117     1.564     0.558     0.522  0.8781  0.4779  0.0226
 
              Baa    -0.0259    -3.472    -1.239    -1.158 -0.4179  0.6140  0.6696
    14 C(13)  Bbb    -0.0215    -2.890    -1.031    -0.964  0.8676  0.4883  0.0937
              Bcc     0.0474     6.362     2.270     2.122  0.2695 -0.6201  0.7368
 
              Baa    -0.0181    -2.427    -0.866    -0.809  0.2822 -0.6713  0.6854
    15 C(13)  Bbb     0.0066     0.887     0.316     0.296 -0.4544  0.5357  0.7117
              Bcc     0.0115     1.540     0.549     0.514  0.8449  0.5123  0.1539
 
              Baa    -0.0279    -3.739    -1.334    -1.247 -0.6987  0.0878  0.7100
    16 C(13)  Bbb    -0.0211    -2.828    -1.009    -0.943  0.6799  0.3905  0.6207
              Bcc     0.0489     6.567     2.343     2.191 -0.2228  0.9164 -0.3326
 
              Baa    -0.0870   -11.669    -4.164    -3.892 -0.2013  0.0278  0.9791
    17 C(13)  Bbb     0.0362     4.860     1.734     1.621  0.9789 -0.0307  0.2021
              Bcc     0.0507     6.809     2.430     2.271  0.0357  0.9991 -0.0211
 
              Baa    -0.0877   -11.773    -4.201    -3.927  0.4396  0.8980  0.0175
    18 C(13)  Bbb    -0.0857   -11.499    -4.103    -3.836  0.8650 -0.4285  0.2611
              Bcc     0.1734    23.272     8.304     7.763 -0.2420  0.0996  0.9652
 
              Baa    -0.0421    -5.644    -2.014    -1.883 -0.1612  0.0727  0.9842
    19 C(13)  Bbb     0.0203     2.728     0.973     0.910  0.5700  0.8210  0.0327
              Bcc     0.0217     2.916     1.041     0.973  0.8057 -0.5663  0.1738
 
              Baa    -0.0022    -0.294    -0.105    -0.098 -0.3469 -0.0482  0.9367
    20 C(13)  Bbb    -0.0002    -0.030    -0.011    -0.010  0.7621  0.5677  0.3114
              Bcc     0.0024     0.324     0.115     0.108 -0.5467  0.8218 -0.1602
 
              Baa    -0.0903   -12.113    -4.322    -4.041 -0.5711  0.8050 -0.1607
    21 C(13)  Bbb    -0.0888   -11.917    -4.252    -3.975  0.7949  0.5912  0.1365
              Bcc     0.1791    24.030     8.574     8.015 -0.2049  0.0498  0.9775
 
              Baa    -0.0100    -1.344    -0.480    -0.448  0.6368 -0.5732 -0.5156
    22 C(13)  Bbb     0.0009     0.121     0.043     0.040  0.1518 -0.5625  0.8127
              Bcc     0.0091     1.224     0.437     0.408  0.7559  0.5959  0.2712
 
              Baa    -0.0097    -1.305    -0.466    -0.435 -0.4355 -0.2872  0.8531
    23 C(13)  Bbb    -0.0064    -0.861    -0.307    -0.287  0.0939  0.9281  0.3603
              Bcc     0.0161     2.167     0.773     0.723  0.8953 -0.2371  0.3772
 
              Baa    -0.0016    -0.214    -0.076    -0.071 -0.2977 -0.5353  0.7904
    24 C(13)  Bbb    -0.0006    -0.079    -0.028    -0.026  0.9525 -0.1114  0.2833
              Bcc     0.0022     0.293     0.105     0.098 -0.0636  0.8373  0.5431
 
              Baa    -0.0128     0.925     0.330     0.309  0.6924 -0.2652  0.6710
    25 O(17)  Bbb    -0.0115     0.835     0.298     0.279  0.6826  0.5422 -0.4900
              Bcc     0.0243    -1.761    -0.628    -0.587 -0.2339  0.7973  0.5564
 
              Baa    -0.0039    -0.518    -0.185    -0.173 -0.6753  0.7345  0.0671
    26 C(13)  Bbb     0.0009     0.119     0.043     0.040  0.1883  0.0838  0.9785
              Bcc     0.0030     0.398     0.142     0.133  0.7131  0.6734 -0.1949
 
              Baa    -0.0054    -0.731    -0.261    -0.244  0.1420 -0.3525  0.9250
    27 C(13)  Bbb    -0.0041    -0.551    -0.196    -0.184  0.9251  0.3796  0.0026
              Bcc     0.0096     1.282     0.457     0.428 -0.3521  0.8553  0.3801
 
              Baa    -0.0008    -0.105    -0.038    -0.035  0.5613 -0.1656  0.8109
    28 C(13)  Bbb    -0.0006    -0.085    -0.030    -0.028  0.6078 -0.5825 -0.5397
              Bcc     0.0014     0.190     0.068     0.063  0.5617  0.7958 -0.2263
 
              Baa    -0.0005    -0.072    -0.026    -0.024  0.6098 -0.1647  0.7752
    29 C(13)  Bbb    -0.0002    -0.023    -0.008    -0.008 -0.1776  0.9249  0.3362
              Bcc     0.0007     0.095     0.034     0.032  0.7724  0.3427 -0.5348
 
              Baa    -0.0370    -1.517    -0.541    -0.506  0.9999  0.0137 -0.0047
    30 S(33)  Bbb    -0.0320    -1.311    -0.468    -0.437 -0.0027  0.4970  0.8677
              Bcc     0.0690     2.827     1.009     0.943 -0.0142  0.8676 -0.4970
 
              Baa    -0.0589    -2.270    -0.810    -0.757 -0.4564  0.8877 -0.0609
    31 N(14)  Bbb    -0.0498    -1.919    -0.685    -0.640  0.8690  0.4594  0.1841
              Bcc     0.1086     4.189     1.495     1.397 -0.1914 -0.0311  0.9810
 
              Baa    -0.0028    -0.480    -0.171    -0.160 -0.3103  0.1427  0.9399
    32 B(11)  Bbb     0.0009     0.161     0.057     0.054  0.7148  0.6868  0.1317
              Bcc     0.0019     0.319     0.114     0.106 -0.6267  0.7127 -0.3151
 
              Baa    -0.0078    -3.935    -1.404    -1.313 -0.1816  0.4551  0.8717
    33 F(19)  Bbb    -0.0062    -3.115    -1.111    -1.039  0.6531 -0.6070  0.4529
              Bcc     0.0140     7.050     2.516     2.352  0.7352  0.6515 -0.1870
 
              Baa    -0.0158    -7.913    -2.823    -2.639 -0.6188  0.6285  0.4713
    34 F(19)  Bbb    -0.0148    -7.414    -2.645    -2.473 -0.0131 -0.6081  0.7937
              Bcc     0.0305    15.327     5.469     5.112  0.7855  0.4850  0.3845
 
              Baa    -0.0926   -12.421    -4.432    -4.143  0.9810 -0.1926  0.0251
    35 C(13)  Bbb    -0.0901   -12.095    -4.316    -4.035  0.1929  0.9811 -0.0117
              Bcc     0.1827    24.516     8.748     8.178 -0.0223  0.0164  0.9996
 
              Baa    -0.0456    -6.113    -2.181    -2.039 -0.0503  0.0052  0.9987
    36 C(13)  Bbb     0.0218     2.926     1.044     0.976  0.9986  0.0164  0.0502
              Bcc     0.0238     3.187     1.137     1.063 -0.0162  0.9999 -0.0060
 
              Baa    -0.0021    -0.288    -0.103    -0.096 -0.1564 -0.1075  0.9818
    37 C(13)  Bbb    -0.0002    -0.026    -0.009    -0.009  0.9084  0.3745  0.1857
              Bcc     0.0023     0.314     0.112     0.105 -0.3876  0.9210  0.0391
 
              Baa    -0.0451    -1.848    -0.659    -0.616  0.7674  0.6372  0.0716
    38 S(33)  Bbb    -0.0328    -1.346    -0.480    -0.449 -0.2428  0.1854  0.9522
              Bcc     0.0779     3.193     1.139     1.065 -0.5935  0.7481 -0.2970
 
              Baa    -0.0006    -0.314    -0.112    -0.105 -0.0925 -0.1789  0.9795
    39 H(1)   Bbb    -0.0002    -0.082    -0.029    -0.027  0.6543  0.7306  0.1952
              Bcc     0.0007     0.396     0.141     0.132  0.7506 -0.6589 -0.0494
 
              Baa    -0.0004    -0.219    -0.078    -0.073  0.2091  0.3268  0.9217
    40 H(1)   Bbb    -0.0003    -0.155    -0.055    -0.052  0.2782  0.8837 -0.3764
              Bcc     0.0007     0.374     0.134     0.125  0.9375 -0.3351 -0.0938
 
              Baa    -0.0006    -0.308    -0.110    -0.103  0.3433  0.8777  0.3343
    41 H(1)   Bbb    -0.0002    -0.121    -0.043    -0.040 -0.5002 -0.1304  0.8560
              Bcc     0.0008     0.429     0.153     0.143  0.7949 -0.4611  0.3943
 
              Baa    -0.0007    -0.375    -0.134    -0.125 -0.0408  0.5754  0.8169
    42 H(1)   Bbb    -0.0005    -0.291    -0.104    -0.097 -0.1277  0.8079 -0.5754
              Bcc     0.0012     0.666     0.238     0.222  0.9910  0.1278 -0.0405
 
              Baa    -0.0007    -0.369    -0.132    -0.123  0.0325  0.9671 -0.2524
    43 H(1)   Bbb    -0.0006    -0.294    -0.105    -0.098  0.5583  0.1919  0.8071
              Bcc     0.0012     0.663     0.237     0.221  0.8290 -0.1671 -0.5337
 
              Baa    -0.0010    -0.525    -0.187    -0.175  0.0401 -0.7006  0.7125
    44 H(1)   Bbb    -0.0000    -0.006    -0.002    -0.002  0.2342  0.6998  0.6749
              Bcc     0.0010     0.531     0.189     0.177  0.9714 -0.1398 -0.1921
 
              Baa    -0.0018    -0.979    -0.349    -0.327  0.9054  0.3753  0.1988
    45 H(1)   Bbb    -0.0015    -0.814    -0.291    -0.272  0.0479 -0.5553  0.8302
              Bcc     0.0034     1.794     0.640     0.598 -0.4220  0.7421  0.5207
 
              Baa    -0.0035    -1.882    -0.672    -0.628  0.3797 -0.4478  0.8095
    46 H(1)   Bbb    -0.0003    -0.166    -0.059    -0.055  0.6712  0.7355  0.0920
              Bcc     0.0038     2.049     0.731     0.683  0.6366 -0.5084 -0.5799
 
              Baa    -0.0013    -0.717    -0.256    -0.239  0.2955 -0.6407  0.7087
    47 H(1)   Bbb    -0.0004    -0.238    -0.085    -0.079 -0.3421  0.6216  0.7047
              Bcc     0.0018     0.955     0.341     0.319  0.8920  0.4507  0.0355
 
              Baa    -0.0039    -2.106    -0.752    -0.703 -0.4032  0.5715  0.7147
    48 H(1)   Bbb    -0.0006    -0.322    -0.115    -0.108  0.2993 -0.6557  0.6932
              Bcc     0.0046     2.429     0.867     0.810  0.8648  0.4934  0.0934
 
              Baa    -0.0013    -0.719    -0.256    -0.240  0.2867 -0.6427  0.7104
    49 H(1)   Bbb    -0.0004    -0.238    -0.085    -0.079 -0.4643  0.5554  0.6899
              Bcc     0.0018     0.957     0.341     0.319  0.8380  0.5277  0.1392
 
              Baa    -0.0035    -1.864    -0.665    -0.622  0.0839 -0.6499  0.7554
    50 H(1)   Bbb     0.0000     0.016     0.006     0.005  0.9614  0.2521  0.1101
              Bcc     0.0035     1.848     0.659     0.616 -0.2620  0.7170  0.6460
 
              Baa    -0.0101    -5.406    -1.929    -1.803 -0.1161  0.9789 -0.1681
    51 H(1)   Bbb    -0.0026    -1.394    -0.497    -0.465 -0.2442  0.1359  0.9602
              Bcc     0.0127     6.799     2.426     2.268  0.9627  0.1525  0.2233
 
              Baa    -0.0014    -0.746    -0.266    -0.249 -0.2080  0.2936  0.9330
    52 H(1)   Bbb    -0.0005    -0.261    -0.093    -0.087  0.8652  0.5002  0.0355
              Bcc     0.0019     1.007     0.359     0.336 -0.4563  0.8146 -0.3581
 
              Baa    -0.0012    -0.664    -0.237    -0.222 -0.0920  0.0014  0.9958
    53 H(1)   Bbb    -0.0008    -0.449    -0.160    -0.150  0.8552  0.5123  0.0783
              Bcc     0.0021     1.113     0.397     0.371 -0.5100  0.8588 -0.0484
 
              Baa    -0.0013    -0.689    -0.246    -0.230  0.0490  0.0897  0.9948
    54 H(1)   Bbb    -0.0012    -0.619    -0.221    -0.206  0.8730  0.4800 -0.0862
              Bcc     0.0025     1.308     0.467     0.436 -0.4853  0.8726 -0.0548
 
              Baa    -0.0007    -0.392    -0.140    -0.131  0.6907  0.3373 -0.6396
    55 H(1)   Bbb    -0.0005    -0.262    -0.094    -0.088 -0.5156  0.8499 -0.1086
              Bcc     0.0012     0.654     0.233     0.218  0.5070  0.4048  0.7610
 
              Baa    -0.0006    -0.303    -0.108    -0.101  0.7845 -0.6153  0.0772
    56 H(1)   Bbb    -0.0003    -0.135    -0.048    -0.045 -0.1990 -0.1318  0.9711
              Bcc     0.0008     0.438     0.156     0.146  0.5873  0.7772  0.2258
 
              Baa    -0.0004    -0.228    -0.081    -0.076 -0.5886  0.4307  0.6841
    57 H(1)   Bbb    -0.0003    -0.167    -0.059    -0.056  0.7339 -0.0703  0.6756
              Bcc     0.0007     0.394     0.141     0.132  0.3391  0.8997 -0.2747
 
              Baa    -0.0004    -0.199    -0.071    -0.066 -0.6259  0.4320  0.6493
    58 H(1)   Bbb    -0.0003    -0.163    -0.058    -0.054  0.5219 -0.3867  0.7603
              Bcc     0.0007     0.362     0.129     0.121  0.5796  0.8148  0.0165
 
              Baa    -0.0004    -0.190    -0.068    -0.063  0.7595 -0.2881  0.5832
    59 H(1)   Bbb    -0.0003    -0.137    -0.049    -0.046 -0.2106  0.7394  0.6395
              Bcc     0.0006     0.327     0.117     0.109  0.6155  0.6085 -0.5009
 
              Baa    -0.0002    -0.129    -0.046    -0.043  0.4601  0.0279  0.8874
    60 H(1)   Bbb    -0.0002    -0.105    -0.037    -0.035 -0.6307  0.7138  0.3045
              Bcc     0.0004     0.234     0.083     0.078  0.6249  0.6998 -0.3460
 
              Baa    -0.0004    -0.204    -0.073    -0.068  0.2112  0.1498  0.9659
    61 H(1)   Bbb    -0.0002    -0.085    -0.031    -0.029 -0.5946  0.8040  0.0053
              Bcc     0.0005     0.290     0.103     0.097  0.7758  0.5754 -0.2589
 
              Baa    -0.0108    -5.758    -2.055    -1.921  0.7856 -0.6173  0.0418
    62 H(1)   Bbb    -0.0028    -1.469    -0.524    -0.490 -0.0050  0.0612  0.9981
              Bcc     0.0135     7.227     2.579     2.411  0.6187  0.7843 -0.0450
 
              Baa    -0.0014    -0.761    -0.271    -0.254  0.0432 -0.1783  0.9830
    63 H(1)   Bbb    -0.0005    -0.243    -0.087    -0.081  0.8946  0.4449  0.0414
              Bcc     0.0019     1.003     0.358     0.335 -0.4447  0.8776  0.1788
 
              Baa    -0.0014    -0.738    -0.263    -0.246  0.1928  0.2825  0.9397
    64 H(1)   Bbb    -0.0010    -0.515    -0.184    -0.172  0.8611  0.4104 -0.3001
              Bcc     0.0023     1.253     0.447     0.418 -0.4704  0.8670 -0.1641
 
              Baa    -0.0013    -0.710    -0.253    -0.237  0.0109  0.1163  0.9931
    65 H(1)   Bbb    -0.0009    -0.497    -0.177    -0.166  0.8909  0.4500 -0.0625
              Bcc     0.0023     1.207     0.431     0.402 -0.4542  0.8854 -0.0988
 

 ---------------------------------------------------------------------------------

 No NMR shielding tensors so no spin-rotation constants.
 Leave Link  601 at Thu Nov  6 09:02:09 2025, MaxMem= 30870077440 cpu:             176.0 elap:               3.1
 (Enter /public/software/gauss/g16/l9999.exe)
 1\1\GINC-CU015\SP\UM062X\def2TZVPP\C30H27B1F2N2O1S2(1-,2)\BAIDING\06-N
 ov-2025\0\\#p M062X/DEF2TZVPP scrf=(solvent=water) em=GD3\\Energy calc
 ulation for M100033023_reduced\\-1,2\C,0,-6.911338,3.639025,0.077119\C
 ,0,-6.367015,2.328425,-0.51424\C,0,-4.952981,2.013251,-0.114029\C,0,-4
 .503063,1.031758,0.730999\C,0,-3.093874,1.030234,0.933886\C,0,-2.42537
 6,2.020065,0.242731\C,0,-1.009196,2.350584,0.171411\N,0,0.016234,1.403
 732,0.128534\C,0,1.228665,2.082717,0.032853\C,0,2.472265,1.398068,-0.0
 66402\C,0,3.742947,2.140305,-0.2119\C,0,4.864473,1.811142,0.578298\C,0
 ,6.06956,2.499756,0.446145\C,0,6.191262,3.540539,-0.478437\C,0,5.09229
 ,3.880597,-1.271417\C,0,3.887371,3.190147,-1.142696\C,0,2.474556,-0.02
 8975,-0.074414\C,0,3.508453,-0.948423,-0.346739\C,0,2.957118,-2.241752
 ,-0.331772\C,0,3.689639,-3.530391,-0.573335\C,0,1.595963,-2.093122,-0.
 026432\C,0,0.596465,-3.146015,0.129581\C,0,-0.083841,-3.591214,1.25946
 2\C,0,0.174406,-3.178907,2.637164\O,0,1.077246,-2.438225,3.022942\C,0,
 -1.024947,-4.638116,0.975706\C,0,-1.063425,-5.023497,-0.333088\C,0,-1.
 89964,-6.09643,-0.971211\C,0,-2.924635,-5.572894,-1.989186\S,0,0.06588
 5,-4.053589,-1.265538\N,0,1.303068,-0.743394,0.117382\B,0,-0.101963,-0
 .128674,0.307397\F,0,-0.992326,-0.681919,-0.630705\F,0,-0.580964,-0.42
 7942,1.611043\C,0,0.952815,3.465643,0.044254\C,0,-0.434325,3.638778,0.
 114728\C,0,-1.12946,4.970628,0.157955\S,0,-3.599016,2.964596,-0.689949
 \H,0,-6.329554,4.502099,-0.262498\H,0,-7.950887,3.794395,-0.229559\H,0
 ,-6.877166,3.619093,1.171165\H,0,-6.992961,1.491722,-0.184704\H,0,-6.4
 50668,2.367088,-1.607753\H,0,-5.1754,0.326677,1.209928\H,0,-2.578449,0
 .327636,1.573039\H,0,4.778926,1.01757,1.313622\H,0,6.913226,2.228143,1
 .074515\H,0,7.129437,4.077818,-0.580443\H,0,5.175312,4.680033,-2.00247
 6\H,0,3.051823,3.450001,-1.784048\H,0,4.540879,-0.697869,-0.545077\H,0
 ,3.744919,-3.77795,-1.64099\H,0,4.719037,-3.468847,-0.205894\H,0,3.204
 484,-4.372353,-0.07058\H,0,-0.514433,-3.636295,3.374681\H,0,-1.63131,-
 5.106622,1.744591\H,0,-1.248782,-6.832148,-1.460072\H,0,-2.418611,-6.6
 25453,-0.164657\H,0,-2.434317,-5.07534,-2.832487\H,0,-3.518544,-6.4003
 4,-2.390031\H,0,-3.607726,-4.854855,-1.52453\H,0,1.687781,4.257033,0.0
 1441\H,0,-1.52285,5.273103,-0.820255\H,0,-1.971619,4.975499,0.856862\H
 ,0,-0.426916,5.748026,0.474109\\Version=ES64L-G16RevA.03\State=2-A\HF=
 -2365.407539\S2=0.774248\S2-1=0.\S2A=0.750473\RMSD=4.297e-09\Dipole=-1
 .7811974,-1.2465406,-1.4099973\Quadrupole=4.2920753,10.1936265,-14.485
 7018,10.4101342,-4.6679962,-0.5369467\PG=C01 [X(C30H27B1F2N2O1S2)]\\@


 Once you get people laughing, they're
 listening and you can tell them almost anything.
                                 -- Herb Gardner
 Job cpu time:       1 days  0 hours  6 minutes 22.7 seconds.
 Elapsed time:       0 days  0 hours 22 minutes 53.6 seconds.
 File lengths (MBytes):  RWF=   2685 Int=      0 D2E=      0 Chk=    174 Scr=      1
 Normal termination of Gaussian 16 at Thu Nov  6 09:02:09 2025.
