 Entering Gaussian System, Link 0=g16
 Input=M100034884_sp.gjf
 Output=M100034884_sp.log
 Initial command:
 /public/software/gauss/g16/l1.exe "/public/home/baiding/1101_v2_sp/tmp_M100034884_sp_1568608/Gau-7389.inp" -scrdir="/public/home/baiding/1101_v2_sp/tmp_M100034884_sp_1568608/"
 Entering Link 1 = /public/software/gauss/g16/l1.exe PID=      7390.
  
 Copyright (c) 1988,1990,1992,1993,1995,1998,2003,2009,2016,
            Gaussian, Inc.  All Rights Reserved.
  
 This is part of the Gaussian(R) 16 program.  It is based on
 the Gaussian(R) 09 system (copyright 2009, Gaussian, Inc.),
 the Gaussian(R) 03 system (copyright 2003, Gaussian, Inc.),
 the Gaussian(R) 98 system (copyright 1998, Gaussian, Inc.),
 the Gaussian(R) 94 system (copyright 1995, Gaussian, Inc.),
 the Gaussian 92(TM) system (copyright 1992, Gaussian, Inc.),
 the Gaussian 90(TM) system (copyright 1990, Gaussian, Inc.),
 the Gaussian 88(TM) system (copyright 1988, Gaussian, Inc.),
 the Gaussian 86(TM) system (copyright 1986, Carnegie Mellon
 University), and the Gaussian 82(TM) system (copyright 1983,
 Carnegie Mellon University). Gaussian is a federally registered
 trademark of Gaussian, Inc.
  
 This software contains proprietary and confidential information,
 including trade secrets, belonging to Gaussian, Inc.
  
 This software is provided under written license and may be
 used, copied, transmitted, or stored only in accord with that
 written license.
  
 The following legend is applicable only to US Government
 contracts under FAR:
  
                    RESTRICTED RIGHTS LEGEND
  
 Use, reproduction and disclosure by the US Government is
 subject to restrictions as set forth in subparagraphs (a)
 and (c) of the Commercial Computer Software - Restricted
 Rights clause in FAR 52.227-19.
  
 Gaussian, Inc.
 340 Quinnipiac St., Bldg. 40, Wallingford CT 06492
  
  
 ---------------------------------------------------------------
 Warning -- This program may not be used in any manner that
 competes with the business of Gaussian, Inc. or will provide
 assistance to any competitor of Gaussian, Inc.  The licensee
 of this program is prohibited from giving any competitor of
 Gaussian, Inc. access to this program.  By using this program,
 the user acknowledges that Gaussian, Inc. is engaged in the
 business of creating and licensing software in the field of
 computational chemistry and represents and warrants to the
 licensee that it is not a competitor of Gaussian, Inc. and that
 it will not use this program in any manner prohibited above.
 ---------------------------------------------------------------
  

 Cite this work as:
 Gaussian 16, Revision A.03,
 M. J. Frisch, G. W. Trucks, H. B. Schlegel, G. E. Scuseria, 
 M. A. Robb, J. R. Cheeseman, G. Scalmani, V. Barone, 
 G. A. Petersson, H. Nakatsuji, X. Li, M. Caricato, A. V. Marenich, 
 J. Bloino, B. G. Janesko, R. Gomperts, B. Mennucci, H. P. Hratchian, 
 J. V. Ortiz, A. F. Izmaylov, J. L. Sonnenberg, D. Williams-Young, 
 F. Ding, F. Lipparini, F. Egidi, J. Goings, B. Peng, A. Petrone, 
 T. Henderson, D. Ranasinghe, V. G. Zakrzewski, J. Gao, N. Rega, 
 G. Zheng, W. Liang, M. Hada, M. Ehara, K. Toyota, R. Fukuda, 
 J. Hasegawa, M. Ishida, T. Nakajima, Y. Honda, O. Kitao, H. Nakai, 
 T. Vreven, K. Throssell, J. A. Montgomery, Jr., J. E. Peralta, 
 F. Ogliaro, M. J. Bearpark, J. J. Heyd, E. N. Brothers, K. N. Kudin, 
 V. N. Staroverov, T. A. Keith, R. Kobayashi, J. Normand, 
 K. Raghavachari, A. P. Rendell, J. C. Burant, S. S. Iyengar, 
 J. Tomasi, M. Cossi, J. M. Millam, M. Klene, C. Adamo, R. Cammi, 
 J. W. Ochterski, R. L. Martin, K. Morokuma, O. Farkas, 
 J. B. Foresman, and D. J. Fox, Gaussian, Inc., Wallingford CT, 2016.
 
 ******************************************
 Gaussian 16:  ES64L-G16RevA.03 25-Dec-2016
                 7-Nov-2025 
 ******************************************
 %nprocshared=64
 Will use up to   64 processors via shared memory.
 %mem=230GB
 %chk=M100034884_sp.chk
 ----------------------------------------------
 #p M062X/DEF2TZVPP scrf=(solvent=water) em=GD3
 ----------------------------------------------
 1/38=1,172=1/1;
 2/12=2,17=6,18=5,40=1/2;
 3/5=44,7=202,11=2,25=1,30=1,70=2201,72=1,74=-55,124=31/1,2,3;
 4//1;
 5/5=2,38=5,53=1/2;
 6/7=2,8=2,9=2,10=2,28=1/1;
 99/5=1,9=1/99;
 Leave Link    1 at Fri Nov  7 04:34:58 2025, MaxMem= 30870077440 cpu:              18.4 elap:               0.3
 (Enter /public/software/gauss/g16/l101.exe)
 ---------------------------------
 Energy calculation for M100034884
 ---------------------------------
 Symbolic Z-matrix:
 Charge =  0 Multiplicity = 1
 C                     3.15035   0.70167   0.06906 
 C                     2.63924  -0.70194  -0.00115 
 C                     3.46375  -1.84252  -0.05624 
 C                     4.87699  -1.87818  -0.05431 
 C                     6.09605  -1.91335  -0.05093 
 C                     7.51796  -1.95947  -0.04479 
 C                     8.28433  -0.77501  -0.02193 
 C                     9.67122  -0.82108  -0.02018 
 C                     10.35157  -2.054    -0.02812 
 N                     11.76317  -2.10141  -0.01913 
 C                     12.45508  -3.12597  -0.72981 
 C                     12.07382  -3.46991  -2.03645 
 C                     12.75452  -4.47397  -2.72391 
 C                     13.83295  -5.13527  -2.13063 
 C                     14.22021  -4.78645  -0.83442 
 C                     13.53426  -3.79591  -0.13251 
 C                     12.51464  -1.12886   0.70351 
 C                     12.13519  -0.75345   2.00209 
 C                     12.87574   0.19894   2.7011 
 C                     14.01172   0.77633   2.12796 
 C                     14.39654   0.3958    0.83996 
 C                     13.65214  -0.54275   0.12634 
 C                     9.59078  -3.23889  -0.04538 
 C                     8.20409  -3.19239  -0.05997 
 C                     2.62029  -2.98822  -0.11219 
 C                     3.03454  -4.41663  -0.17695 
 N                     1.33852  -2.58676  -0.09225 
 C                     1.29735  -1.18288  -0.02493 
 C                     0.06407  -0.50985   0.01568 
 C                     0.04203   0.98206   0.08342 
 C                     0.06343   1.74629  -1.09024 
 C                     0.03532   3.13708  -1.02682 
 C                    -0.00809   3.80481   0.21022 
 C                    -0.03663   5.28508   0.2768 
 C                     0.57669   5.97634   1.33807 
 C                     0.54523   7.36164   1.39384 
 C                    -0.10103   8.12275   0.3942 
 C                    -0.07458   9.55983   0.5525 
 C                    -0.59884   10.57604  -0.19509 
 C                    -1.35056   10.41014  -1.39362 
 N                    -1.9696    10.30343  -2.37733 
 C                    -0.37379   11.97105   0.27151 
 O                     0.24901   12.27155   1.27823 
 O                    -0.937     12.8805  -0.54641 
 C                    -0.71583   7.42716  -0.67081 
 C                    -0.68079   6.04265  -0.72313 
 C                    -0.02438   3.02787   1.38244 
 C                    -0.00295   1.63688   1.32106 
 C                    -1.14974  -1.21858  -0.00263 
 C                    -2.50456  -0.77578   0.02769 
 C                    -3.05557   0.61317   0.08612 
 C                    -3.29666  -1.93989  -0.01057 
 C                    -4.70836  -2.01454   0.00039 
 C                    -5.92611  -2.08079   0.00898 
 C                    -7.34646  -2.16156   0.01818 
 C                    -8.00303  -3.4104   -0.00196 
 C                    -9.38835  -3.48957  -0.00017 
 C                    -10.17698  -2.32345   0.03469 
 N                    -11.58706  -2.40446   0.04276 
 C                    -12.24455  -3.46808   0.72815 
 C                    -13.31716  -4.14246   0.12405 
 C                    -13.97    -5.17135   0.80196 
 C                    -13.55561  -5.5541    2.08008 
 C                    -12.48355  -4.8883    2.67984 
 C                    -11.83603  -3.84649   2.01692 
 C                    -12.37107  -1.42615  -0.6361 
 C                    -12.01845  -0.99827  -1.92597 
 C                    -12.79054  -0.04072  -2.58252 
 C                    -13.93166   0.48981  -1.9753 
 C                    -14.28959   0.05713  -0.69603 
 C                    -13.51374  -0.88697  -0.02445 
 C                    -9.52609  -1.07503   0.06162 
 C                    -8.1408   -0.99577   0.04706 
 C                    -2.42144  -3.06146  -0.06554 
 C                    -2.79507  -4.50148  -0.12024 
 N                    -1.15146  -2.62344  -0.06084 
 B                     0.10639  -3.52875  -0.13551 
 F                     0.13362  -4.40861   0.95238 
 F                     0.1017   -4.26165  -1.32894 
 H                     2.8398    1.29183  -0.79853 
 H                     2.78598   1.22434   0.95834 
 H                     4.24248   0.69362   0.1009 
 H                     7.78062   0.18624  -0.02077 
 H                     10.23551   0.10469  -0.01842 
 H                     11.24779  -2.94924  -2.50948 
 H                     12.44793  -4.72847  -3.73425 
 H                     14.3649  -5.9116   -2.67169 
 H                     15.05285  -5.29588  -0.35828 
 H                     13.83098  -3.53936   0.87908 
 H                     11.26402  -1.20978   2.46025 
 H                     12.56967   0.47833   3.70501 
 H                     14.58975   1.51223   2.67818 
 H                     15.27384   0.84034   0.37923 
 H                     13.94829  -0.82364  -0.87895 
 H                     10.09216  -4.20018  -0.04087 
 H                     7.63749  -4.11794  -0.06723 
 H                     2.58572  -4.91006  -1.04422 
 H                     4.12065  -4.49142  -0.24519 
 H                     2.69719  -4.95723   0.71333 
 H                     0.10677   1.25119  -2.05515 
 H                     0.0723    3.70738  -1.94906 
 H                     1.10145   5.42634   2.11176 
 H                     1.03235   7.87677   2.21626 
 H                     0.46158   9.9067    1.43295 
 H                    -0.75365   13.76711  -0.18526 
 H                    -1.22943   7.96433  -1.45756 
 H                    -1.18185   5.53608  -1.54099 
 H                    -0.08029   3.5119    2.35189 
 H                    -0.02747   1.05616   2.2377 
 H                    -2.70794   1.2254   -0.7511 
 H                    -4.14707   0.57679   0.05293 
 H                    -2.7607    1.13016   1.00445 
 H                    -7.41485  -4.32184  -0.0344 
 H                    -9.86714  -4.46181  -0.03217 
 H                    -13.63473  -3.85928  -0.87403 
 H                    -14.79803  -5.68366   0.32089 
 H                    -14.06191  -6.35989   2.60232 
 H                    -12.15622  -5.16915   3.6766 
 H                    -11.01504  -3.32281   2.49538 
 H                    -11.14322  -1.41832  -2.41041 
 H                    -12.50489   0.27949  -3.58024 
 H                    -14.53427   1.22988  -2.49255 
 H                    -15.17056   0.46499  -0.20912 
 H                    -13.78939  -1.20842   0.97451 
 H                    -10.11194  -0.16352   0.09941 
 H                    -7.65997  -0.02323   0.07337 
 H                    -2.37508  -4.97573  -1.01264 
 H                    -2.39726  -5.0369    0.74766 
 H                    -3.8804   -4.60914  -0.13705 
 
 ITRead=  0  0  0  0  0  0  0  0  0  0  0  0  0  0  0  0  0  0  0  0
 ITRead=  0  0  0  0  0  0  0  0  0  0  0  0  0  0  0  0  0  0  0  0
 ITRead=  0  0  0  0  0  0  0  0  0  0  0  0  0  0  0  0  0  0  0  0
 ITRead=  0  0  0  0  0  0  0  0  0  0  0  0  0  0  0  0  0  0  0  0
 ITRead=  0  0  0  0  0  0  0  0  0  0  0  0  0  0  0  0  0  0  0  0
 ITRead=  0  0  0  0  0  0  0  0  0  0  0  0  0  0  0  0  0  0  0  0
 ITRead=  0  0  0  0  0  0  0  0  0
 MicOpt= -1 -1 -1 -1 -1 -1 -1 -1 -1 -1 -1 -1 -1 -1 -1 -1 -1 -1 -1 -1
 MicOpt= -1 -1 -1 -1 -1 -1 -1 -1 -1 -1 -1 -1 -1 -1 -1 -1 -1 -1 -1 -1
 MicOpt= -1 -1 -1 -1 -1 -1 -1 -1 -1 -1 -1 -1 -1 -1 -1 -1 -1 -1 -1 -1
 MicOpt= -1 -1 -1 -1 -1 -1 -1 -1 -1 -1 -1 -1 -1 -1 -1 -1 -1 -1 -1 -1
 MicOpt= -1 -1 -1 -1 -1 -1 -1 -1 -1 -1 -1 -1 -1 -1 -1 -1 -1 -1 -1 -1
 MicOpt= -1 -1 -1 -1 -1 -1 -1 -1 -1 -1 -1 -1 -1 -1 -1 -1 -1 -1 -1 -1
 MicOpt= -1 -1 -1 -1 -1 -1 -1 -1 -1
 NAtoms=    129 NQM=      129 NQMF=       0 NMMI=      0 NMMIF=      0
                NMic=       0 NMicF=      0.
                    Isotopes and Nuclear Properties:
 (Nuclear quadrupole moments (NQMom) in fm**2, nuclear magnetic moments (NMagM)
  in nuclear magnetons)

  Atom         1           2           3           4           5           6           7           8           9          10
 IAtWgt=          12          12          12          12          12          12          12          12          12          14
 AtmWgt=  12.0000000  12.0000000  12.0000000  12.0000000  12.0000000  12.0000000  12.0000000  12.0000000  12.0000000  14.0030740
 NucSpn=           0           0           0           0           0           0           0           0           0           2
 AtZEff=  -0.0000000  -0.0000000  -0.0000000  -0.0000000  -0.0000000  -0.0000000  -0.0000000  -0.0000000  -0.0000000  -0.0000000
 NQMom=    0.0000000   0.0000000   0.0000000   0.0000000   0.0000000   0.0000000   0.0000000   0.0000000   0.0000000   2.0440000
 NMagM=    0.0000000   0.0000000   0.0000000   0.0000000   0.0000000   0.0000000   0.0000000   0.0000000   0.0000000   0.4037610
 AtZNuc=   6.0000000   6.0000000   6.0000000   6.0000000   6.0000000   6.0000000   6.0000000   6.0000000   6.0000000   7.0000000

  Atom        11          12          13          14          15          16          17          18          19          20
 IAtWgt=          12          12          12          12          12          12          12          12          12          12
 AtmWgt=  12.0000000  12.0000000  12.0000000  12.0000000  12.0000000  12.0000000  12.0000000  12.0000000  12.0000000  12.0000000
 NucSpn=           0           0           0           0           0           0           0           0           0           0
 AtZEff=  -0.0000000  -0.0000000  -0.0000000  -0.0000000  -0.0000000  -0.0000000  -0.0000000  -0.0000000  -0.0000000  -0.0000000
 NQMom=    0.0000000   0.0000000   0.0000000   0.0000000   0.0000000   0.0000000   0.0000000   0.0000000   0.0000000   0.0000000
 NMagM=    0.0000000   0.0000000   0.0000000   0.0000000   0.0000000   0.0000000   0.0000000   0.0000000   0.0000000   0.0000000
 AtZNuc=   6.0000000   6.0000000   6.0000000   6.0000000   6.0000000   6.0000000   6.0000000   6.0000000   6.0000000   6.0000000

  Atom        21          22          23          24          25          26          27          28          29          30
 IAtWgt=          12          12          12          12          12          12          14          12          12          12
 AtmWgt=  12.0000000  12.0000000  12.0000000  12.0000000  12.0000000  12.0000000  14.0030740  12.0000000  12.0000000  12.0000000
 NucSpn=           0           0           0           0           0           0           2           0           0           0
 AtZEff=  -0.0000000  -0.0000000  -0.0000000  -0.0000000  -0.0000000  -0.0000000  -0.0000000  -0.0000000  -0.0000000  -0.0000000
 NQMom=    0.0000000   0.0000000   0.0000000   0.0000000   0.0000000   0.0000000   2.0440000   0.0000000   0.0000000   0.0000000
 NMagM=    0.0000000   0.0000000   0.0000000   0.0000000   0.0000000   0.0000000   0.4037610   0.0000000   0.0000000   0.0000000
 AtZNuc=   6.0000000   6.0000000   6.0000000   6.0000000   6.0000000   6.0000000   7.0000000   6.0000000   6.0000000   6.0000000

  Atom        31          32          33          34          35          36          37          38          39          40
 IAtWgt=          12          12          12          12          12          12          12          12          12          12
 AtmWgt=  12.0000000  12.0000000  12.0000000  12.0000000  12.0000000  12.0000000  12.0000000  12.0000000  12.0000000  12.0000000
 NucSpn=           0           0           0           0           0           0           0           0           0           0
 AtZEff=  -0.0000000  -0.0000000  -0.0000000  -0.0000000  -0.0000000  -0.0000000  -0.0000000  -0.0000000  -0.0000000  -0.0000000
 NQMom=    0.0000000   0.0000000   0.0000000   0.0000000   0.0000000   0.0000000   0.0000000   0.0000000   0.0000000   0.0000000
 NMagM=    0.0000000   0.0000000   0.0000000   0.0000000   0.0000000   0.0000000   0.0000000   0.0000000   0.0000000   0.0000000
 AtZNuc=   6.0000000   6.0000000   6.0000000   6.0000000   6.0000000   6.0000000   6.0000000   6.0000000   6.0000000   6.0000000

  Atom        41          42          43          44          45          46          47          48          49          50
 IAtWgt=          14          12          16          16          12          12          12          12          12          12
 AtmWgt=  14.0030740  12.0000000  15.9949146  15.9949146  12.0000000  12.0000000  12.0000000  12.0000000  12.0000000  12.0000000
 NucSpn=           2           0           0           0           0           0           0           0           0           0
 AtZEff=  -0.0000000  -0.0000000  -0.0000000  -0.0000000  -0.0000000  -0.0000000  -0.0000000  -0.0000000  -0.0000000  -0.0000000
 NQMom=    2.0440000   0.0000000   0.0000000   0.0000000   0.0000000   0.0000000   0.0000000   0.0000000   0.0000000   0.0000000
 NMagM=    0.4037610   0.0000000   0.0000000   0.0000000   0.0000000   0.0000000   0.0000000   0.0000000   0.0000000   0.0000000
 AtZNuc=   7.0000000   6.0000000   8.0000000   8.0000000   6.0000000   6.0000000   6.0000000   6.0000000   6.0000000   6.0000000

  Atom        51          52          53          54          55          56          57          58          59          60
 IAtWgt=          12          12          12          12          12          12          12          12          14          12
 AtmWgt=  12.0000000  12.0000000  12.0000000  12.0000000  12.0000000  12.0000000  12.0000000  12.0000000  14.0030740  12.0000000
 NucSpn=           0           0           0           0           0           0           0           0           2           0
 AtZEff=  -0.0000000  -0.0000000  -0.0000000  -0.0000000  -0.0000000  -0.0000000  -0.0000000  -0.0000000  -0.0000000  -0.0000000
 NQMom=    0.0000000   0.0000000   0.0000000   0.0000000   0.0000000   0.0000000   0.0000000   0.0000000   2.0440000   0.0000000
 NMagM=    0.0000000   0.0000000   0.0000000   0.0000000   0.0000000   0.0000000   0.0000000   0.0000000   0.4037610   0.0000000
 AtZNuc=   6.0000000   6.0000000   6.0000000   6.0000000   6.0000000   6.0000000   6.0000000   6.0000000   7.0000000   6.0000000

  Atom        61          62          63          64          65          66          67          68          69          70
 IAtWgt=          12          12          12          12          12          12          12          12          12          12
 AtmWgt=  12.0000000  12.0000000  12.0000000  12.0000000  12.0000000  12.0000000  12.0000000  12.0000000  12.0000000  12.0000000
 NucSpn=           0           0           0           0           0           0           0           0           0           0
 AtZEff=  -0.0000000  -0.0000000  -0.0000000  -0.0000000  -0.0000000  -0.0000000  -0.0000000  -0.0000000  -0.0000000  -0.0000000
 NQMom=    0.0000000   0.0000000   0.0000000   0.0000000   0.0000000   0.0000000   0.0000000   0.0000000   0.0000000   0.0000000
 NMagM=    0.0000000   0.0000000   0.0000000   0.0000000   0.0000000   0.0000000   0.0000000   0.0000000   0.0000000   0.0000000
 AtZNuc=   6.0000000   6.0000000   6.0000000   6.0000000   6.0000000   6.0000000   6.0000000   6.0000000   6.0000000   6.0000000

  Atom        71          72          73          74          75          76          77          78          79          80
 IAtWgt=          12          12          12          12          12          14          11          19          19           1
 AtmWgt=  12.0000000  12.0000000  12.0000000  12.0000000  12.0000000  14.0030740  11.0093053  18.9984033  18.9984033   1.0078250
 NucSpn=           0           0           0           0           0           2           3           1           1           1
 AtZEff=  -0.0000000  -0.0000000  -0.0000000  -0.0000000  -0.0000000  -0.0000000  -0.0000000  -0.0000000  -0.0000000  -0.0000000
 NQMom=    0.0000000   0.0000000   0.0000000   0.0000000   0.0000000   2.0440000   4.0590000   0.0000000   0.0000000   0.0000000
 NMagM=    0.0000000   0.0000000   0.0000000   0.0000000   0.0000000   0.4037610   2.6886370   2.6288670   2.6288670   2.7928460
 AtZNuc=   6.0000000   6.0000000   6.0000000   6.0000000   6.0000000   7.0000000   5.0000000   9.0000000   9.0000000   1.0000000

  Atom        81          82          83          84          85          86          87          88          89          90
 IAtWgt=           1           1           1           1           1           1           1           1           1           1
 AtmWgt=   1.0078250   1.0078250   1.0078250   1.0078250   1.0078250   1.0078250   1.0078250   1.0078250   1.0078250   1.0078250
 NucSpn=           1           1           1           1           1           1           1           1           1           1
 AtZEff=  -0.0000000  -0.0000000  -0.0000000  -0.0000000  -0.0000000  -0.0000000  -0.0000000  -0.0000000  -0.0000000  -0.0000000
 NQMom=    0.0000000   0.0000000   0.0000000   0.0000000   0.0000000   0.0000000   0.0000000   0.0000000   0.0000000   0.0000000
 NMagM=    2.7928460   2.7928460   2.7928460   2.7928460   2.7928460   2.7928460   2.7928460   2.7928460   2.7928460   2.7928460
 AtZNuc=   1.0000000   1.0000000   1.0000000   1.0000000   1.0000000   1.0000000   1.0000000   1.0000000   1.0000000   1.0000000

  Atom        91          92          93          94          95          96          97          98          99         100
 IAtWgt=           1           1           1           1           1           1           1           1           1           1
 AtmWgt=   1.0078250   1.0078250   1.0078250   1.0078250   1.0078250   1.0078250   1.0078250   1.0078250   1.0078250   1.0078250
 NucSpn=           1           1           1           1           1           1           1           1           1           1
 AtZEff=  -0.0000000  -0.0000000  -0.0000000  -0.0000000  -0.0000000  -0.0000000  -0.0000000  -0.0000000  -0.0000000  -0.0000000
 NQMom=    0.0000000   0.0000000   0.0000000   0.0000000   0.0000000   0.0000000   0.0000000   0.0000000   0.0000000   0.0000000
 NMagM=    2.7928460   2.7928460   2.7928460   2.7928460   2.7928460   2.7928460   2.7928460   2.7928460   2.7928460   2.7928460
 AtZNuc=   1.0000000   1.0000000   1.0000000   1.0000000   1.0000000   1.0000000   1.0000000   1.0000000   1.0000000   1.0000000

  Atom       101         102         103         104         105         106         107         108         109         110
 IAtWgt=           1           1           1           1           1           1           1           1           1           1
 AtmWgt=   1.0078250   1.0078250   1.0078250   1.0078250   1.0078250   1.0078250   1.0078250   1.0078250   1.0078250   1.0078250
 NucSpn=           1           1           1           1           1           1           1           1           1           1
 AtZEff=  -0.0000000  -0.0000000  -0.0000000  -0.0000000  -0.0000000  -0.0000000  -0.0000000  -0.0000000  -0.0000000  -0.0000000
 NQMom=    0.0000000   0.0000000   0.0000000   0.0000000   0.0000000   0.0000000   0.0000000   0.0000000   0.0000000   0.0000000
 NMagM=    2.7928460   2.7928460   2.7928460   2.7928460   2.7928460   2.7928460   2.7928460   2.7928460   2.7928460   2.7928460
 AtZNuc=   1.0000000   1.0000000   1.0000000   1.0000000   1.0000000   1.0000000   1.0000000   1.0000000   1.0000000   1.0000000

  Atom       111         112         113         114         115         116         117         118         119         120
 IAtWgt=           1           1           1           1           1           1           1           1           1           1
 AtmWgt=   1.0078250   1.0078250   1.0078250   1.0078250   1.0078250   1.0078250   1.0078250   1.0078250   1.0078250   1.0078250
 NucSpn=           1           1           1           1           1           1           1           1           1           1
 AtZEff=  -0.0000000  -0.0000000  -0.0000000  -0.0000000  -0.0000000  -0.0000000  -0.0000000  -0.0000000  -0.0000000  -0.0000000
 NQMom=    0.0000000   0.0000000   0.0000000   0.0000000   0.0000000   0.0000000   0.0000000   0.0000000   0.0000000   0.0000000
 NMagM=    2.7928460   2.7928460   2.7928460   2.7928460   2.7928460   2.7928460   2.7928460   2.7928460   2.7928460   2.7928460
 AtZNuc=   1.0000000   1.0000000   1.0000000   1.0000000   1.0000000   1.0000000   1.0000000   1.0000000   1.0000000   1.0000000

  Atom       121         122         123         124         125         126         127         128         129
 IAtWgt=           1           1           1           1           1           1           1           1           1
 AtmWgt=   1.0078250   1.0078250   1.0078250   1.0078250   1.0078250   1.0078250   1.0078250   1.0078250   1.0078250
 NucSpn=           1           1           1           1           1           1           1           1           1
 AtZEff=  -0.0000000  -0.0000000  -0.0000000  -0.0000000  -0.0000000  -0.0000000  -0.0000000  -0.0000000  -0.0000000
 NQMom=    0.0000000   0.0000000   0.0000000   0.0000000   0.0000000   0.0000000   0.0000000   0.0000000   0.0000000
 NMagM=    2.7928460   2.7928460   2.7928460   2.7928460   2.7928460   2.7928460   2.7928460   2.7928460   2.7928460
 AtZNuc=   1.0000000   1.0000000   1.0000000   1.0000000   1.0000000   1.0000000   1.0000000   1.0000000   1.0000000
 Leave Link  101 at Fri Nov  7 04:34:58 2025, MaxMem= 30870077440 cpu:               4.8 elap:               0.1
 (Enter /public/software/gauss/g16/l202.exe)
 Stoichiometry    C69H50BF2N5O2
 Framework group  C1[X(C69H50BF2N5O2)]
 Deg. of freedom   381
 Full point group                 C1      NOp   1
 Largest Abelian subgroup         C1      NOp   1
 Largest concise Abelian subgroup C1      NOp   1
                         Standard orientation:                         
 ---------------------------------------------------------------------
 Center     Atomic      Atomic             Coordinates (Angstroms)
 Number     Number       Type             X           Y           Z
 ---------------------------------------------------------------------
      1          6           0       -3.150345    0.701668   -0.069060
      2          6           0       -2.639239   -0.701940    0.001151
      3          6           0       -3.463745   -1.842522    0.056239
      4          6           0       -4.876993   -1.878179    0.054310
      5          6           0       -6.096047   -1.913346    0.050933
      6          6           0       -7.517959   -1.959472    0.044792
      7          6           0       -8.284329   -0.775010    0.021927
      8          6           0       -9.671218   -0.821082    0.020177
      9          6           0      -10.351572   -2.053997    0.028118
     10          7           0      -11.763170   -2.101414    0.019127
     11          6           0      -12.455078   -3.125969    0.729807
     12          6           0      -12.073820   -3.469905    2.036453
     13          6           0      -12.754517   -4.473973    2.723912
     14          6           0      -13.832950   -5.135270    2.130635
     15          6           0      -14.220207   -4.786451    0.834415
     16          6           0      -13.534261   -3.795910    0.132513
     17          6           0      -12.514635   -1.128861   -0.703513
     18          6           0      -12.135193   -0.753448   -2.002085
     19          6           0      -12.875736    0.198942   -2.701095
     20          6           0      -14.011716    0.776332   -2.127958
     21          6           0      -14.396544    0.395803   -0.839958
     22          6           0      -13.652136   -0.542745   -0.126339
     23          6           0       -9.590782   -3.238887    0.045381
     24          6           0       -8.204085   -3.192387    0.059972
     25          6           0       -2.620291   -2.988218    0.112190
     26          6           0       -3.034542   -4.416626    0.176947
     27          7           0       -1.338517   -2.586760    0.092248
     28          6           0       -1.297351   -1.182884    0.024933
     29          6           0       -0.064070   -0.509848   -0.015677
     30          6           0       -0.042025    0.982064   -0.083417
     31          6           0       -0.063431    1.746290    1.090243
     32          6           0       -0.035316    3.137076    1.026824
     33          6           0        0.008093    3.804808   -0.210215
     34          6           0        0.036634    5.285082   -0.276800
     35          6           0       -0.576688    5.976340   -1.338072
     36          6           0       -0.545226    7.361642   -1.393838
     37          6           0        0.101027    8.122755   -0.394198
     38          6           0        0.074583    9.559832   -0.552503
     39          6           0        0.598844   10.576035    0.195094
     40          6           0        1.350562   10.410141    1.393619
     41          7           0        1.969598   10.303425    2.377326
     42          6           0        0.373788   11.971052   -0.271506
     43          8           0       -0.249008   12.271548   -1.278226
     44          8           0        0.937004   12.880498    0.546408
     45          6           0        0.715826    7.427159    0.670811
     46          6           0        0.680787    6.042645    0.723134
     47          6           0        0.024377    3.027868   -1.382438
     48          6           0        0.002952    1.636878   -1.321063
     49          6           0        1.149738   -1.218583    0.002631
     50          6           0        2.504555   -0.775780   -0.027690
     51          6           0        3.055571    0.613172   -0.086118
     52          6           0        3.296657   -1.939887    0.010568
     53          6           0        4.708362   -2.014538   -0.000392
     54          6           0        5.926111   -2.080789   -0.008980
     55          6           0        7.346464   -2.161559   -0.018181
     56          6           0        8.003027   -3.410396    0.001961
     57          6           0        9.388348   -3.489565    0.000172
     58          6           0       10.176975   -2.323449   -0.034688
     59          7           0       11.587058   -2.404464   -0.042761
     60          6           0       12.244547   -3.468076   -0.728145
     61          6           0       13.317164   -4.142462   -0.124049
     62          6           0       13.970002   -5.171348   -0.801957
     63          6           0       13.555615   -5.554100   -2.080081
     64          6           0       12.483552   -4.888295   -2.679835
     65          6           0       11.836029   -3.846488   -2.016915
     66          6           0       12.371075   -1.426154    0.636104
     67          6           0       12.018453   -0.998266    1.925972
     68          6           0       12.790541   -0.040719    2.582515
     69          6           0       13.931660    0.489807    1.975295
     70          6           0       14.289592    0.057130    0.696033
     71          6           0       13.513744   -0.886974    0.024450
     72          6           0        9.526093   -1.075030   -0.061622
     73          6           0        8.140800   -0.995771   -0.047064
     74          6           0        2.421442   -3.061457    0.065536
     75          6           0        2.795065   -4.501484    0.120241
     76          7           0        1.151457   -2.623438    0.060835
     77          5           0       -0.106389   -3.528748    0.135512
     78          9           0       -0.133621   -4.408609   -0.952381
     79          9           0       -0.101699   -4.261653    1.328936
     80          1           0       -2.839798    1.291834    0.798533
     81          1           0       -2.785976    1.224343   -0.958340
     82          1           0       -4.242476    0.693620   -0.100899
     83          1           0       -7.780616    0.186235    0.020772
     84          1           0      -10.235514    0.104689    0.018415
     85          1           0      -11.247795   -2.949240    2.509479
     86          1           0      -12.447927   -4.728473    3.734250
     87          1           0      -14.364896   -5.911601    2.671689
     88          1           0      -15.052846   -5.295876    0.358282
     89          1           0      -13.830978   -3.539359   -0.879077
     90          1           0      -11.264018   -1.209784   -2.460248
     91          1           0      -12.569669    0.478331   -3.705007
     92          1           0      -14.589745    1.512227   -2.678182
     93          1           0      -15.273839    0.840339   -0.379234
     94          1           0      -13.948287   -0.823644    0.878953
     95          1           0      -10.092163   -4.200177    0.040869
     96          1           0       -7.637491   -4.117944    0.067233
     97          1           0       -2.585720   -4.910059    1.044217
     98          1           0       -4.120654   -4.491422    0.245193
     99          1           0       -2.697187   -4.957226   -0.713334
    100          1           0       -0.106765    1.251192    2.055153
    101          1           0       -0.072303    3.707375    1.949064
    102          1           0       -1.101454    5.426342   -2.111764
    103          1           0       -1.032349    7.876768   -2.216260
    104          1           0       -0.461584    9.906704   -1.432946
    105          1           0        0.753653   13.767110    0.185263
    106          1           0        1.229425    7.964328    1.457557
    107          1           0        1.181850    5.536076    1.540994
    108          1           0        0.080293    3.511900   -2.351886
    109          1           0        0.027466    1.056162   -2.237697
    110          1           0        2.707939    1.225402    0.751099
    111          1           0        4.147073    0.576789   -0.052930
    112          1           0        2.760697    1.130160   -1.004447
    113          1           0        7.414853   -4.321842    0.034400
    114          1           0        9.867143   -4.461808    0.032170
    115          1           0       13.634729   -3.859276    0.874029
    116          1           0       14.798026   -5.683656   -0.320892
    117          1           0       14.061911   -6.359891   -2.602321
    118          1           0       12.156223   -5.169152   -3.676602
    119          1           0       11.015038   -3.322809   -2.495384
    120          1           0       11.143217   -1.418317    2.410413
    121          1           0       12.504887    0.279491    3.580235
    122          1           0       14.534270    1.229879    2.492554
    123          1           0       15.170564    0.464985    0.209121
    124          1           0       13.789389   -1.208424   -0.974511
    125          1           0       10.111940   -0.163520   -0.099406
    126          1           0        7.659968   -0.023233   -0.073366
    127          1           0        2.375079   -4.975725    1.012636
    128          1           0        2.397259   -5.036899   -0.747660
    129          1           0        3.880404   -4.609140    0.137054
 ---------------------------------------------------------------------
 Rotational constants (GHZ):           0.0211449           0.0068953           0.0053391
 Leave Link  202 at Fri Nov  7 04:34:58 2025, MaxMem= 30870077440 cpu:               0.3 elap:               0.0
 (Enter /public/software/gauss/g16/l301.exe)
 Standard basis: def2TZVPP (5D, 7F)
 Ernie: Thresh=  0.10000D-02 Tol=  0.10000D-05 Strict=F.
 There are  3594 symmetry adapted cartesian basis functions of A   symmetry.
 There are  3149 symmetry adapted basis functions of A   symmetry.
  3149 basis functions,  4879 primitive gaussians,  3594 cartesian basis functions
   269 alpha electrons      269 beta electrons
       nuclear repulsion energy     10167.9033147054 Hartrees.
 IExCor= 4336 DFT=T Ex+Corr=M062X ExCW=0 ScaHFX=  0.540000
 ScaDFX=  1.000000  1.000000  1.000000  1.000000 ScalE2=  1.000000  1.000000
 IRadAn=      5 IRanWt=     -1 IRanGd=            0 ICorTp=0 IEmpDi=131
 NAtoms=  129 NActive=  129 NUniq=  129 SFac= 1.00D+00 NAtFMM=   60 NAOKFM=T Big=T
 Integral buffers will be    131072 words long.
 Raffenetti 2 integral format.
 Two-electron integral symmetry is turned on.
 R6Disp:  Grimme-D3 Dispersion energy=       -0.0107947169 Hartrees.
 Nuclear repulsion after empirical dispersion term =    10167.8925199885 Hartrees.
 ------------------------------------------------------------------------------
 Polarizable Continuum Model (PCM)
 =================================
 Model                : PCM.
 Atomic radii         : UFF (Universal Force Field).
 Polarization charges : Total charges.
 Charge compensation  : None.
 Solution method      : On-the-fly selection.
 Cavity type          : Scaled VdW (van der Waals Surface) (Alpha=1.100).
 Cavity algorithm     : GePol (No added spheres)
                        Default sphere list used, NSphG=  129.
                        Lebedev-Laikov grids with approx.  5.0 points / Ang**2.
                        Smoothing algorithm: York/Karplus (Gamma=1.0000).
                        Polarization charges: spherical gaussians, with
                                              point-specific exponents (IZeta= 3).
                        Self-potential: point-specific (ISelfS= 7).
                        Self-field    : sphere-specific E.n sum rule (ISelfD= 2).
 Solvent              : Water, Eps=  78.355300 Eps(inf)=   1.777849
 ------------------------------------------------------------------------------
 GePol: Number of generator spheres                  =     129
 GePol: Total number of spheres                      =     129
 GePol: Number of exposed spheres                    =     129 (100.00%)
 GePol: Number of points                             =    9426
 GePol: Average weight of points                     =       0.13
 GePol: Minimum weight of points                     =   0.14D-11
 GePol: Maximum weight of points                     =    0.20577
 GePol: Number of points with low weight             =     636
 GePol: Fraction of low-weight points (<1% of avg)   =       6.75%
 GePol: Cavity surface area                          =   1205.492 Ang**2
 GePol: Cavity volume                                =   1396.756 Ang**3
 Leave Link  301 at Fri Nov  7 04:34:58 2025, MaxMem= 30870077440 cpu:               4.7 elap:               0.1
 (Enter /public/software/gauss/g16/l302.exe)
 NPDir=0 NMtPBC=     1 NCelOv=     1 NCel=       1 NClECP=     1 NCelD=      1
         NCelK=      1 NCelE2=     1 NClLst=     1 CellRange=     0.0.
 One-electron integrals computed using PRISM.
 One-electron integral symmetry used in STVInt
   1 Symmetry operations used in ECPInt.
 ECPInt:  NShTT=  683865 NPrTT= 1963078 LenC2=  265787 LenP2D=  501739.
 LDataN:  DoStor=T MaxTD1= 6 Len=  172
 Number of processors reduced to  54 by ecpmxn.
 NBasis=  3149 RedAO= T EigKep=  3.00D-06  NBF=  3149
 NBsUse=  3149 1.00D-06 EigRej= -1.00D+00 NBFU=  3149
 Precomputing XC quadrature grid using
 IXCGrd= 4 IRadAn=           5 IRanWt=          -1 IRanGd=           0 AccXCQ= 0.00D+00.
 Generated NRdTot=       0 NPtTot=           0 NUsed=           0 NTot=          32
 NSgBfM=  2346  2311  2323  2337  2346 MxSgAt=   129 MxSgA2=   129.
 Leave Link  302 at Fri Nov  7 04:35:37 2025, MaxMem= 30870077440 cpu:            2504.3 elap:              39.3
 (Enter /public/software/gauss/g16/l303.exe)
 DipDrv:  MaxL=1.
 Leave Link  303 at Fri Nov  7 04:35:39 2025, MaxMem= 30870077440 cpu:              66.6 elap:               1.1
 (Enter /public/software/gauss/g16/l401.exe)
 ExpMin= 6.06D-02 ExpMax= 3.55D+04 ExpMxC= 1.21D+03 IAcc=3 IRadAn=         5 AccDes= 0.00D+00
 Harris functional with IExCor= 1009 and IRadAn=       5 diagonalized for initial guess.
 HarFok:  IExCor= 1009 AccDes= 0.00D+00 IRadAn=         5 IDoV= 1 UseB2=F ITyADJ=14
 ICtDFT=  3500011 ScaDFX=  1.000000  1.000000  1.000000  1.000000
 FoFCou: FMM=F IPFlag=           0 FMFlag=      100000 FMFlg1=        2001
         NFxFlg=           0 DoJE=T BraDBF=F KetDBF=T FulRan=T
         wScrn=  0.000000 ICntrl=       500 IOpCl=  0 I1Cent=   200000004 NGrid=           0
         NMat0=    1 NMatS0=      1 NMatT0=    0 NMatD0=    1 NMtDS0=    0 NMtDT0=    0
 Petite list used in FoFCou.
 Harris En= -3306.63827183684    
 JPrj=0 DoOrth=F DoCkMO=F.
 Leave Link  401 at Fri Nov  7 04:36:07 2025, MaxMem= 30870077440 cpu:            1822.1 elap:              28.6
 (Enter /public/software/gauss/g16/l502.exe)
 Integral symmetry usage will be decided dynamically.
 Closed shell SCF:
 Using DIIS extrapolation, IDIIS=  1040.
 NGot= 30870077440 LenX= 30843983699 LenY= 30831063269
 Requested convergence on RMS density matrix=1.00D-08 within 128 cycles.
 Requested convergence on MAX density matrix=1.00D-06.
 Requested convergence on             energy=1.00D-06.
 No special actions if energy rises.
 Fock matrices will be formed incrementally for  20 cycles.

 Cycle   1  Pass 1  IDiag  1:
 FoFJK:  IHMeth= 1 ICntrl=       0 DoSepK=F KAlg= 0 I1Cent=           0 FoldK=F
 IRaf= 350000000 NMat=       1 IRICut=       1 DoRegI=T DoRafI=F ISym2E= 0 IDoP0=0 IntGTp=1.
 FoFCou: FMM=T IPFlag=           0 FMFlag=      100000 FMFlg1=        2001
         NFxFlg=           0 DoJE=F BraDBF=F KetDBF=F FulRan=T
         wScrn=  0.000000 ICntrl=         0 IOpCl=  0 I1Cent=           0 NGrid=           0
         NMat0=    1 NMatS0=      1 NMatT0=    0 NMatD0=    1 NMtDS0=    0 NMtDT0=    0
 Symmetry not used in FoFCou.
 FMM levels:  10  Number of levels for PrismC:   9
 Inv3:  Mode=1 IEnd=   266548428.
 Iteration    1 A*A^-1 deviation from unit magnitude is 1.63D-14 for   1159.
 Iteration    1 A*A^-1 deviation from orthogonality  is 1.09D-14 for   4365   2354.
 Iteration    1 A^-1*A deviation from unit magnitude is 1.33D-14 for   2345.
 Iteration    1 A^-1*A deviation from orthogonality  is 4.22D-15 for   6974   4178.
 E= -3306.50810196739    
 DIIS: error= 2.07D-02 at cycle   1 NSaved=   1.
 NSaved= 1 IEnMin= 1 EnMin= -3306.50810196739     IErMin= 1 ErrMin= 2.07D-02
 ErrMax= 2.07D-02  0.00D+00 EMaxC= 1.00D-01 BMatC= 2.20D+00 BMatP= 2.20D+00
 IDIUse=3 WtCom= 7.93D-01 WtEn= 2.07D-01
 Coeff-Com:  0.100D+01
 Coeff-En:   0.100D+01
 Coeff:      0.100D+01
 Gap=     0.140 Goal=   None    Shift=    0.000
 GapD=    0.140 DampG=1.000 DampE=0.500 DampFc=0.5000 IDamp=-1.
 Damping current iteration by 5.00D-01
 RMSDP=1.02D-03 MaxDP=3.08D-01              OVMax= 1.86D-01

 Cycle   2  Pass 1  IDiag  1:
 RMSU=  5.02D-04    CP:  9.68D-01
 E= -3307.40670879494     Delta-E=       -0.898606827552 Rises=F Damp=T
 DIIS: error= 5.55D-03 at cycle   2 NSaved=   2.
 NSaved= 2 IEnMin= 2 EnMin= -3307.40670879494     IErMin= 2 ErrMin= 5.55D-03
 ErrMax= 5.55D-03  0.00D+00 EMaxC= 1.00D-01 BMatC= 2.22D-01 BMatP= 2.20D+00
 IDIUse=3 WtCom= 9.45D-01 WtEn= 5.55D-02
 Coeff-Com: -0.145D+00 0.115D+01
 Coeff-En:   0.000D+00 0.100D+01
 Coeff:     -0.137D+00 0.114D+01
 Gap=     0.146 Goal=   None    Shift=    0.000
 RMSDP=5.02D-04 MaxDP=9.88D-02 DE=-8.99D-01 OVMax= 1.45D-01

 Cycle   3  Pass 1  IDiag  1:
 RMSU=  4.67D-04    CP:  9.38D-01  1.33D+00
 E= -3308.16500157222     Delta-E=       -0.758292777287 Rises=F Damp=F
 DIIS: error= 6.30D-03 at cycle   3 NSaved=   3.
 NSaved= 3 IEnMin= 3 EnMin= -3308.16500157222     IErMin= 2 ErrMin= 5.55D-03
 ErrMax= 6.30D-03  0.00D+00 EMaxC= 1.00D-01 BMatC= 1.33D-01 BMatP= 2.22D-01
 IDIUse=3 WtCom= 9.37D-01 WtEn= 6.30D-02
 Coeff-Com: -0.143D+00 0.553D+00 0.590D+00
 Coeff-En:   0.000D+00 0.000D+00 0.100D+01
 Coeff:     -0.134D+00 0.518D+00 0.616D+00
 Gap=     0.151 Goal=   None    Shift=    0.000
 RMSDP=1.50D-04 MaxDP=4.46D-02 DE=-7.58D-01 OVMax= 7.48D-02

 Cycle   4  Pass 1  IDiag  1:
 RMSU=  1.38D-04    CP:  9.40D-01  1.40D+00  9.06D-01
 E= -3308.26165753025     Delta-E=       -0.096655958027 Rises=F Damp=F
 DIIS: error= 3.52D-03 at cycle   4 NSaved=   4.
 NSaved= 4 IEnMin= 4 EnMin= -3308.26165753025     IErMin= 4 ErrMin= 3.52D-03
 ErrMax= 3.52D-03  0.00D+00 EMaxC= 1.00D-01 BMatC= 2.36D-02 BMatP= 1.33D-01
 IDIUse=3 WtCom= 9.65D-01 WtEn= 3.52D-02
 Coeff-Com: -0.482D-01 0.130D+00 0.337D+00 0.581D+00
 Coeff-En:   0.000D+00 0.000D+00 0.145D+00 0.855D+00
 Coeff:     -0.465D-01 0.126D+00 0.330D+00 0.591D+00
 Gap=     0.141 Goal=   None    Shift=    0.000
 RMSDP=5.66D-05 MaxDP=1.89D-02 DE=-9.67D-02 OVMax= 2.07D-02

 Cycle   5  Pass 1  IDiag  1:
 RMSU=  4.04D-05    CP:  9.39D-01  1.38D+00  9.29D-01  7.40D-01
 E= -3308.28189262013     Delta-E=       -0.020235089878 Rises=F Damp=F
 DIIS: error= 1.14D-03 at cycle   5 NSaved=   5.
 NSaved= 5 IEnMin= 5 EnMin= -3308.28189262013     IErMin= 5 ErrMin= 1.14D-03
 ErrMax= 1.14D-03  0.00D+00 EMaxC= 1.00D-01 BMatC= 1.09D-03 BMatP= 2.36D-02
 IDIUse=3 WtCom= 9.89D-01 WtEn= 1.14D-02
 Coeff-Com: -0.146D-01 0.308D-01 0.128D+00 0.287D+00 0.569D+00
 Coeff-En:   0.000D+00 0.000D+00 0.000D+00 0.000D+00 0.100D+01
 Coeff:     -0.145D-01 0.305D-01 0.127D+00 0.283D+00 0.574D+00
 Gap=     0.142 Goal=   None    Shift=    0.000
 RMSDP=1.51D-05 MaxDP=4.21D-03 DE=-2.02D-02 OVMax= 5.42D-03

 Cycle   6  Pass 1  IDiag  1:
 RMSU=  1.37D-05    CP:  9.38D-01  1.38D+00  9.27D-01  7.34D-01  8.56D-01
 E= -3308.28269323909     Delta-E=       -0.000800618966 Rises=F Damp=F
 DIIS: error= 4.74D-04 at cycle   6 NSaved=   6.
 NSaved= 6 IEnMin= 6 EnMin= -3308.28269323909     IErMin= 6 ErrMin= 4.74D-04
 ErrMax= 4.74D-04  0.00D+00 EMaxC= 1.00D-01 BMatC= 1.36D-04 BMatP= 1.09D-03
 IDIUse=3 WtCom= 9.95D-01 WtEn= 4.74D-03
 Coeff-Com: -0.254D-02 0.310D-02 0.320D-01 0.817D-01 0.299D+00 0.587D+00
 Coeff-En:   0.000D+00 0.000D+00 0.000D+00 0.000D+00 0.305D-01 0.969D+00
 Coeff:     -0.252D-02 0.308D-02 0.319D-01 0.813D-01 0.297D+00 0.589D+00
 Gap=     0.143 Goal=   None    Shift=    0.000
 RMSDP=4.96D-06 MaxDP=1.42D-03 DE=-8.01D-04 OVMax= 2.54D-03

 Cycle   7  Pass 1  IDiag  1:
 RMSU=  4.34D-06    CP:  9.38D-01  1.38D+00  9.26D-01  7.33D-01  9.07D-01
                    CP:  9.14D-01
 E= -3308.28280498002     Delta-E=       -0.000111740928 Rises=F Damp=F
 DIIS: error= 9.42D-05 at cycle   7 NSaved=   7.
 NSaved= 7 IEnMin= 7 EnMin= -3308.28280498002     IErMin= 7 ErrMin= 9.42D-05
 ErrMax= 9.42D-05  0.00D+00 EMaxC= 1.00D-01 BMatC= 1.41D-05 BMatP= 1.36D-04
 IDIUse=1 WtCom= 1.00D+00 WtEn= 0.00D+00
 Coeff-Com:  0.898D-03-0.277D-02-0.310D-02-0.601D-02 0.528D-01 0.275D+00
 Coeff-Com:  0.683D+00
 Coeff:      0.898D-03-0.277D-02-0.310D-02-0.601D-02 0.528D-01 0.275D+00
 Coeff:      0.683D+00
 Gap=     0.143 Goal=   None    Shift=    0.000
 RMSDP=2.49D-06 MaxDP=6.92D-04 DE=-1.12D-04 OVMax= 7.53D-04

 Cycle   8  Pass 1  IDiag  1:
 RMSU=  1.96D-06    CP:  9.39D-01  1.38D+00  9.27D-01  7.32D-01  9.36D-01
                    CP:  9.80D-01  1.02D+00
 E= -3308.28281930568     Delta-E=       -0.000014325657 Rises=F Damp=F
 DIIS: error= 2.30D-05 at cycle   8 NSaved=   8.
 NSaved= 8 IEnMin= 8 EnMin= -3308.28281930568     IErMin= 8 ErrMin= 2.30D-05
 ErrMax= 2.30D-05  0.00D+00 EMaxC= 1.00D-01 BMatC= 1.78D-06 BMatP= 1.41D-05
 IDIUse=1 WtCom= 1.00D+00 WtEn= 0.00D+00
 Coeff-Com:  0.922D-03-0.204D-02-0.682D-02-0.177D-01-0.249D-01 0.370D-01
 Coeff-Com:  0.307D+00 0.707D+00
 Coeff:      0.922D-03-0.204D-02-0.682D-02-0.177D-01-0.249D-01 0.370D-01
 Coeff:      0.307D+00 0.707D+00
 Gap=     0.143 Goal=   None    Shift=    0.000
 RMSDP=9.09D-07 MaxDP=2.45D-04 DE=-1.43D-05 OVMax= 5.29D-04

 Cycle   9  Pass 1  IDiag  1:
 RMSU=  6.49D-07    CP:  9.39D-01  1.38D+00  9.27D-01  7.32D-01  9.44D-01
                    CP:  1.00D+00  1.13D+00  1.06D+00
 E= -3308.28282129582     Delta-E=       -0.000001990144 Rises=F Damp=F
 DIIS: error= 5.97D-06 at cycle   9 NSaved=   9.
 NSaved= 9 IEnMin= 9 EnMin= -3308.28282129582     IErMin= 9 ErrMin= 5.97D-06
 ErrMax= 5.97D-06  0.00D+00 EMaxC= 1.00D-01 BMatC= 1.36D-07 BMatP= 1.78D-06
 IDIUse=1 WtCom= 1.00D+00 WtEn= 0.00D+00
 Coeff-Com:  0.218D-03-0.424D-03-0.178D-02-0.550D-02-0.129D-01-0.984D-02
 Coeff-Com:  0.357D-01 0.235D+00 0.759D+00
 Coeff:      0.218D-03-0.424D-03-0.178D-02-0.550D-02-0.129D-01-0.984D-02
 Coeff:      0.357D-01 0.235D+00 0.759D+00
 Gap=     0.143 Goal=   None    Shift=    0.000
 RMSDP=3.06D-07 MaxDP=9.37D-05 DE=-1.99D-06 OVMax= 1.85D-04

 Cycle  10  Pass 1  IDiag  1:
 RMSU=  2.46D-07    CP:  9.39D-01  1.38D+00  9.27D-01  7.31D-01  9.44D-01
                    CP:  1.01D+00  1.14D+00  1.11D+00  1.12D+00
 E= -3308.28282148142     Delta-E=       -0.000000185593 Rises=F Damp=F
 DIIS: error= 2.66D-06 at cycle  10 NSaved=  10.
 NSaved=10 IEnMin=10 EnMin= -3308.28282148142     IErMin=10 ErrMin= 2.66D-06
 ErrMax= 2.66D-06  0.00D+00 EMaxC= 1.00D-01 BMatC= 2.66D-08 BMatP= 1.36D-07
 IDIUse=1 WtCom= 1.00D+00 WtEn= 0.00D+00
 Coeff-Com: -0.346D-04 0.104D-03 0.220D-03-0.557D-05-0.220D-02-0.840D-02
 Coeff-Com: -0.290D-01 0.288D-02 0.327D+00 0.709D+00
 Coeff:     -0.346D-04 0.104D-03 0.220D-03-0.557D-05-0.220D-02-0.840D-02
 Coeff:     -0.290D-01 0.288D-02 0.327D+00 0.709D+00
 Gap=     0.143 Goal=   None    Shift=    0.000
 RMSDP=1.35D-07 MaxDP=3.33D-05 DE=-1.86D-07 OVMax= 6.22D-05

 Cycle  11  Pass 1  IDiag  1:
 RMSU=  9.81D-08    CP:  9.39D-01  1.38D+00  9.27D-01  7.31D-01  9.44D-01
                    CP:  1.01D+00  1.15D+00  1.14D+00  1.20D+00  1.04D+00
 E= -3308.28282150790     Delta-E=       -0.000000026481 Rises=F Damp=F
 DIIS: error= 9.50D-07 at cycle  11 NSaved=  11.
 NSaved=11 IEnMin=11 EnMin= -3308.28282150790     IErMin=11 ErrMin= 9.50D-07
 ErrMax= 9.50D-07  0.00D+00 EMaxC= 1.00D-01 BMatC= 4.84D-09 BMatP= 2.66D-08
 IDIUse=1 WtCom= 1.00D+00 WtEn= 0.00D+00
 Coeff-Com: -0.446D-04 0.104D-03 0.354D-03 0.719D-03 0.614D-03-0.269D-02
 Coeff-Com: -0.206D-01-0.308D-01 0.644D-01 0.357D+00 0.631D+00
 Coeff:     -0.446D-04 0.104D-03 0.354D-03 0.719D-03 0.614D-03-0.269D-02
 Coeff:     -0.206D-01-0.308D-01 0.644D-01 0.357D+00 0.631D+00
 Gap=     0.143 Goal=   None    Shift=    0.000
 RMSDP=3.65D-08 MaxDP=4.92D-06 DE=-2.65D-08 OVMax= 2.83D-05

 Cycle  12  Pass 1  IDiag  1:
 RMSU=  2.77D-08    CP:  9.39D-01  1.38D+00  9.27D-01  7.31D-01  9.44D-01
                    CP:  1.01D+00  1.15D+00  1.15D+00  1.22D+00  1.12D+00
                    CP:  9.38D-01
 E= -3308.28282151375     Delta-E=       -0.000000005852 Rises=F Damp=F
 DIIS: error= 2.81D-07 at cycle  12 NSaved=  12.
 NSaved=12 IEnMin=12 EnMin= -3308.28282151375     IErMin=12 ErrMin= 2.81D-07
 ErrMax= 2.81D-07  0.00D+00 EMaxC= 1.00D-01 BMatC= 4.69D-10 BMatP= 4.84D-09
 IDIUse=1 WtCom= 1.00D+00 WtEn= 0.00D+00
 Coeff-Com: -0.120D-04 0.259D-04 0.114D-03 0.274D-03 0.490D-03 0.769D-04
 Coeff-Com: -0.474D-02-0.121D-01-0.145D-01 0.451D-01 0.262D+00 0.723D+00
 Coeff:     -0.120D-04 0.259D-04 0.114D-03 0.274D-03 0.490D-03 0.769D-04
 Coeff:     -0.474D-02-0.121D-01-0.145D-01 0.451D-01 0.262D+00 0.723D+00
 Gap=     0.143 Goal=   None    Shift=    0.000
 RMSDP=1.48D-08 MaxDP=2.95D-06 DE=-5.85D-09 OVMax= 8.36D-06

 Cycle  13  Pass 1  IDiag  1:
 RMSU=  1.11D-08    CP:  9.39D-01  1.38D+00  9.27D-01  7.31D-01  9.44D-01
                    CP:  1.01D+00  1.15D+00  1.15D+00  1.22D+00  1.12D+00
                    CP:  1.01D+00  1.04D+00
 E= -3308.28282151478     Delta-E=       -0.000000001026 Rises=F Damp=F
 DIIS: error= 1.48D-07 at cycle  13 NSaved=  13.
 NSaved=13 IEnMin=13 EnMin= -3308.28282151478     IErMin=13 ErrMin= 1.48D-07
 ErrMax= 1.48D-07  0.00D+00 EMaxC= 1.00D-01 BMatC= 6.49D-11 BMatP= 4.69D-10
 IDIUse=1 WtCom= 1.00D+00 WtEn= 0.00D+00
 Coeff-Com:  0.111D-05-0.311D-05 0.324D-05 0.181D-04 0.125D-03 0.438D-03
 Coeff-Com:  0.612D-03-0.103D-02-0.142D-01-0.304D-01 0.384D-01 0.315D+00
 Coeff-Com:  0.691D+00
 Coeff:      0.111D-05-0.311D-05 0.324D-05 0.181D-04 0.125D-03 0.438D-03
 Coeff:      0.612D-03-0.103D-02-0.142D-01-0.304D-01 0.384D-01 0.315D+00
 Coeff:      0.691D+00
 Gap=     0.143 Goal=   None    Shift=    0.000
 RMSDP=6.12D-09 MaxDP=1.01D-06 DE=-1.03D-09 OVMax= 3.59D-06

 Cycle  14  Pass 1  IDiag  1:
 RMSU=  4.33D-09    CP:  9.39D-01  1.38D+00  9.27D-01  7.31D-01  9.44D-01
                    CP:  1.01D+00  1.15D+00  1.15D+00  1.22D+00  1.13D+00
                    CP:  1.04D+00  1.11D+00  1.09D+00
 E= -3308.28282151493     Delta-E=       -0.000000000153 Rises=F Damp=F
 DIIS: error= 3.84D-08 at cycle  14 NSaved=  14.
 NSaved=14 IEnMin=14 EnMin= -3308.28282151493     IErMin=14 ErrMin= 3.84D-08
 ErrMax= 3.84D-08  0.00D+00 EMaxC= 1.00D-01 BMatC= 6.46D-12 BMatP= 6.49D-11
 IDIUse=1 WtCom= 1.00D+00 WtEn= 0.00D+00
 Coeff-Com:  0.178D-05-0.410D-05-0.111D-04-0.252D-04-0.713D-05 0.169D-03
 Coeff-Com:  0.708D-03 0.101D-02-0.312D-02-0.170D-01-0.148D-01 0.174D-01
 Coeff-Com:  0.234D+00 0.781D+00
 Coeff:      0.178D-05-0.410D-05-0.111D-04-0.252D-04-0.713D-05 0.169D-03
 Coeff:      0.708D-03 0.101D-02-0.312D-02-0.170D-01-0.148D-01 0.174D-01
 Coeff:      0.234D+00 0.781D+00
 Gap=     0.143 Goal=   None    Shift=    0.000
 RMSDP=2.23D-09 MaxDP=4.42D-07 DE=-1.53D-10 OVMax= 1.39D-06

 Error on total polarization charges =  0.03458
 SCF Done:  E(RM062X) =  -3308.28282151     A.U. after   14 cycles
            NFock= 14  Conv=0.22D-08     -V/T= 2.0056
 KE= 3.289960931819D+03 PE=-2.802829964881D+04 EE= 1.126216337548D+04
 Leave Link  502 at Fri Nov  7 05:11:10 2025, MaxMem= 30870077440 cpu:          131473.5 elap:            2102.2
 (Enter /public/software/gauss/g16/l601.exe)
 Copying SCF densities to generalized density rwf, IOpCl= 0 IROHF=0.
 Hyperfine terms turned off by default for NAtoms > 100.

 **********************************************************************

            Population analysis using the SCF density.

 **********************************************************************

 Orbital symmetries:
       Occupied  (A) (A) (A) (A) (A) (A) (A) (A) (A) (A) (A) (A)
                 (A) (A) (A) (A) (A) (A) (A) (A) (A) (A) (A) (A)
                 (A) (A) (A) (A) (A) (A) (A) (A) (A) (A) (A) (A)
                 (A) (A) (A) (A) (A) (A) (A) (A) (A) (A) (A) (A)
                 (A) (A) (A) (A) (A) (A) (A) (A) (A) (A) (A) (A)
                 (A) (A) (A) (A) (A) (A) (A) (A) (A) (A) (A) (A)
                 (A) (A) (A) (A) (A) (A) (A) (A) (A) (A) (A) (A)
                 (A) (A) (A) (A) (A) (A) (A) (A) (A) (A) (A) (A)
                 (A) (A) (A) (A) (A) (A) (A) (A) (A) (A) (A) (A)
                 (A) (A) (A) (A) (A) (A) (A) (A) (A) (A) (A) (A)
                 (A) (A) (A) (A) (A) (A) (A) (A) (A) (A) (A) (A)
                 (A) (A) (A) (A) (A) (A) (A) (A) (A) (A) (A) (A)
                 (A) (A) (A) (A) (A) (A) (A) (A) (A) (A) (A) (A)
                 (A) (A) (A) (A) (A) (A) (A) (A) (A) (A) (A) (A)
                 (A) (A) (A) (A) (A) (A) (A) (A) (A) (A) (A) (A)
                 (A) (A) (A) (A) (A) (A) (A) (A) (A) (A) (A) (A)
                 (A) (A) (A) (A) (A) (A) (A) (A) (A) (A) (A) (A)
                 (A) (A) (A) (A) (A) (A) (A) (A) (A) (A) (A) (A)
                 (A) (A) (A) (A) (A) (A) (A) (A) (A) (A) (A) (A)
                 (A) (A) (A) (A) (A) (A) (A) (A) (A) (A) (A) (A)
                 (A) (A) (A) (A) (A) (A) (A) (A) (A) (A) (A) (A)
                 (A) (A) (A) (A) (A) (A) (A) (A) (A) (A) (A) (A)
                 (A) (A) (A) (A) (A)
       Virtual   (A) (A) (A) (A) (A) (A) (A) (A) (A) (A) (A) (A)
                 (A) (A) (A) (A) (A) (A) (A) (A) (A) (A) (A) (A)
                 (A) (A) (A) (A) (A) (A) (A) (A) (A) (A) (A) (A)
                 (A) (A) (A) (A) (A) (A) (A) (A) (A) (A) (A) (A)
                 (A) (A) (A) (A) (A) (A) (A) (A) (A) (A) (A) (A)
                 (A) (A) (A) (A) (A) (A) (A) (A) (A) (A) (A) (A)
                 (A) (A) (A) (A) (A) (A) (A) (A) (A) (A) (A) (A)
                 (A) (A) (A) (A) (A) (A) (A) (A) (A) (A) (A) (A)
                 (A) (A) (A) (A) (A) (A) (A) (A) (A) (A) (A) (A)
                 (A) (A) (A) (A) (A) (A) (A) (A) (A) (A) (A) (A)
                 (A) (A) (A) (A) (A) (A) (A) (A) (A) (A) (A) (A)
                 (A) (A) (A) (A) (A) (A) (A) (A) (A) (A) (A) (A)
                 (A) (A) (A) (A) (A) (A) (A) (A) (A) (A) (A) (A)
                 (A) (A) (A) (A) (A) (A) (A) (A) (A) (A) (A) (A)
                 (A) (A) (A) (A) (A) (A) (A) (A) (A) (A) (A) (A)
                 (A) (A) (A) (A) (A) (A) (A) (A) (A) (A) (A) (A)
                 (A) (A) (A) (A) (A) (A) (A) (A) (A) (A) (A) (A)
                 (A) (A) (A) (A) (A) (A) (A) (A) (A) (A) (A) (A)
                 (A) (A) (A) (A) (A) (A) (A) (A) (A) (A) (A) (A)
                 (A) (A) (A) (A) (A) (A) (A) (A) (A) (A) (A) (A)
                 (A) (A) (A) (A) (A) (A) (A) (A) (A) (A) (A) (A)
                 (A) (A) (A) (A) (A) (A) (A) (A) (A) (A) (A) (A)
                 (A) (A) (A) (A) (A) (A) (A) (A) (A) (A) (A) (A)
                 (A) (A) (A) (A) (A) (A) (A) (A) (A) (A) (A) (A)
                 (A) (A) (A) (A) (A) (A) (A) (A) (A) (A) (A) (A)
                 (A) (A) (A) (A) (A) (A) (A) (A) (A) (A) (A) (A)
                 (A) (A) (A) (A) (A) (A) (A) (A) (A) (A) (A) (A)
                 (A) (A) (A) (A) (A) (A) (A) (A) (A) (A) (A) (A)
                 (A) (A) (A) (A) (A) (A) (A) (A) (A) (A) (A) (A)
                 (A) (A) (A) (A) (A) (A) (A) (A) (A) (A) (A) (A)
                 (A) (A) (A) (A) (A) (A) (A) (A) (A) (A) (A) (A)
                 (A) (A) (A) (A) (A) (A) (A) (A) (A) (A) (A) (A)
                 (A) (A) (A) (A) (A) (A) (A) (A) (A) (A) (A) (A)
                 (A) (A) (A) (A) (A) (A) (A) (A) (A) (A) (A) (A)
                 (A) (A) (A) (A) (A) (A) (A) (A) (A) (A) (A) (A)
                 (A) (A) (A) (A) (A) (A) (A) (A) (A) (A) (A) (A)
                 (A) (A) (A) (A) (A) (A) (A) (A) (A) (A) (A) (A)
                 (A) (A) (A) (A) (A) (A) (A) (A) (A) (A) (A) (A)
                 (A) (A) (A) (A) (A) (A) (A) (A) (A) (A) (A) (A)
                 (A) (A) (A) (A) (A) (A) (A) (A) (A) (A) (A) (A)
                 (A) (A) (A) (A) (A) (A) (A) (A) (A) (A) (A) (A)
                 (A) (A) (A) (A) (A) (A) (A) (A) (A) (A) (A) (A)
                 (A) (A) (A) (A) (A) (A) (A) (A) (A) (A) (A) (A)
                 (A) (A) (A) (A) (A) (A) (A) (A) (A) (A) (A) (A)
                 (A) (A) (A) (A) (A) (A) (A) (A) (A) (A) (A) (A)
                 (A) (A) (A) (A) (A) (A) (A) (A) (A) (A) (A) (A)
                 (A) (A) (A) (A) (A) (A) (A) (A) (A) (A) (A) (A)
                 (A) (A) (A) (A) (A) (A) (A) (A) (A) (A) (A) (A)
                 (A) (A) (A) (A) (A) (A) (A) (A) (A) (A) (A) (A)
                 (A) (A) (A) (A) (A) (A) (A) (A) (A) (A) (A) (A)
                 (A) (A) (A) (A) (A) (A) (A) (A) (A) (A) (A) (A)
                 (A) (A) (A) (A) (A) (A) (A) (A) (A) (A) (A) (A)
                 (A) (A) (A) (A) (A) (A) (A) (A) (A) (A) (A) (A)
                 (A) (A) (A) (A) (A) (A) (A) (A) (A) (A) (A) (A)
                 (A) (A) (A) (A) (A) (A) (A) (A) (A) (A) (A) (A)
                 (A) (A) (A) (A) (A) (A) (A) (A) (A) (A) (A) (A)
                 (A) (A) (A) (A) (A) (A) (A) (A) (A) (A) (A) (A)
                 (A) (A) (A) (A) (A) (A) (A) (A) (A) (A) (A) (A)
                 (A) (A) (A) (A) (A) (A) (A) (A) (A) (A) (A) (A)
                 (A) (A) (A) (A) (A) (A) (A) (A) (A) (A) (A) (A)
                 (A) (A) (A) (A) (A) (A) (A) (A) (A) (A) (A) (A)
                 (A) (A) (A) (A) (A) (A) (A) (A) (A) (A) (A) (A)
                 (A) (A) (A) (A) (A) (A) (A) (A) (A) (A) (A) (A)
                 (A) (A) (A) (A) (A) (A) (A) (A) (A) (A) (A) (A)
                 (A) (A) (A) (A) (A) (A) (A) (A) (A) (A) (A) (A)
                 (A) (A) (A) (A) (A) (A) (A) (A) (A) (A) (A) (A)
                 (A) (A) (A) (A) (A) (A) (A) (A) (A) (A) (A) (A)
                 (A) (A) (A) (A) (A) (A) (A) (A) (A) (A) (A) (A)
                 (A) (A) (A) (A) (A) (A) (A) (A) (A) (A) (A) (A)
                 (A) (A) (A) (A) (A) (A) (A) (A) (A) (A) (A) (A)
                 (A) (A) (A) (A) (A) (A) (A) (A) (A) (A) (A) (A)
                 (A) (A) (A) (A) (A) (A) (A) (A) (A) (A) (A) (A)
                 (A) (A) (A) (A) (A) (A) (A) (A) (A) (A) (A) (A)
                 (A) (A) (A) (A) (A) (A) (A) (A) (A) (A) (A) (A)
                 (A) (A) (A) (A) (A) (A) (A) (A) (A) (A) (A) (A)
                 (A) (A) (A) (A) (A) (A) (A) (A) (A) (A) (A) (A)
                 (A) (A) (A) (A) (A) (A) (A) (A) (A) (A) (A) (A)
                 (A) (A) (A) (A) (A) (A) (A) (A) (A) (A) (A) (A)
                 (A) (A) (A) (A) (A) (A) (A) (A) (A) (A) (A) (A)
                 (A) (A) (A) (A) (A) (A) (A) (A) (A) (A) (A) (A)
                 (A) (A) (A) (A) (A) (A) (A) (A) (A) (A) (A) (A)
                 (A) (A) (A) (A) (A) (A) (A) (A) (A) (A) (A) (A)
                 (A) (A) (A) (A) (A) (A) (A) (A) (A) (A) (A) (A)
                 (A) (A) (A) (A) (A) (A) (A) (A) (A) (A) (A) (A)
                 (A) (A) (A) (A) (A) (A) (A) (A) (A) (A) (A) (A)
                 (A) (A) (A) (A) (A) (A) (A) (A) (A) (A) (A) (A)
                 (A) (A) (A) (A) (A) (A) (A) (A) (A) (A) (A) (A)
                 (A) (A) (A) (A) (A) (A) (A) (A) (A) (A) (A) (A)
                 (A) (A) (A) (A) (A) (A) (A) (A) (A) (A) (A) (A)
                 (A) (A) (A) (A) (A) (A) (A) (A) (A) (A) (A) (A)
                 (A) (A) (A) (A) (A) (A) (A) (A) (A) (A) (A) (A)
                 (A) (A) (A) (A) (A) (A) (A) (A) (A) (A) (A) (A)
                 (A) (A) (A) (A) (A) (A) (A) (A) (A) (A) (A) (A)
                 (A) (A) (A) (A) (A) (A) (A) (A) (A) (A) (A) (A)
                 (A) (A) (A) (A) (A) (A) (A) (A) (A) (A) (A) (A)
                 (A) (A) (A) (A) (A) (A) (A) (A) (A) (A) (A) (A)
                 (A) (A) (A) (A) (A) (A) (A) (A) (A) (A) (A) (A)
                 (A) (A) (A) (A) (A) (A) (A) (A) (A) (A) (A) (A)
                 (A) (A) (A) (A) (A) (A) (A) (A) (A) (A) (A) (A)
                 (A) (A) (A) (A) (A) (A) (A) (A) (A) (A) (A) (A)
                 (A) (A) (A) (A) (A) (A) (A) (A) (A) (A) (A) (A)
                 (A) (A) (A) (A) (A) (A) (A) (A) (A) (A) (A) (A)
                 (A) (A) (A) (A) (A) (A) (A) (A) (A) (A) (A) (A)
                 (A) (A) (A) (A) (A) (A) (A) (A) (A) (A) (A) (A)
                 (A) (A) (A) (A) (A) (A) (A) (A) (A) (A) (A) (A)
                 (A) (A) (A) (A) (A) (A) (A) (A) (A) (A) (A) (A)
                 (A) (A) (A) (A) (A) (A) (A) (A) (A) (A) (A) (A)
                 (A) (A) (A) (A) (A) (A) (A) (A) (A) (A) (A) (A)
                 (A) (A) (A) (A) (A) (A) (A) (A) (A) (A) (A) (A)
                 (A) (A) (A) (A) (A) (A) (A) (A) (A) (A) (A) (A)
                 (A) (A) (A) (A) (A) (A) (A) (A) (A) (A) (A) (A)
                 (A) (A) (A) (A) (A) (A) (A) (A) (A) (A) (A) (A)
                 (A) (A) (A) (A) (A) (A) (A) (A) (A) (A) (A) (A)
                 (A) (A) (A) (A) (A) (A) (A) (A) (A) (A) (A) (A)
                 (A) (A) (A) (A) (A) (A) (A) (A) (A) (A) (A) (A)
                 (A) (A) (A) (A) (A) (A) (A) (A) (A) (A) (A) (A)
                 (A) (A) (A) (A) (A) (A) (A) (A) (A) (A) (A) (A)
                 (A) (A) (A) (A) (A) (A) (A) (A) (A) (A) (A) (A)
                 (A) (A) (A) (A) (A) (A) (A) (A) (A) (A) (A) (A)
                 (A) (A) (A) (A) (A) (A) (A) (A) (A) (A) (A) (A)
                 (A) (A) (A) (A) (A) (A) (A) (A) (A) (A) (A) (A)
                 (A) (A) (A) (A) (A) (A) (A) (A) (A) (A) (A) (A)
                 (A) (A) (A) (A) (A) (A) (A) (A) (A) (A) (A) (A)
                 (A) (A) (A) (A) (A) (A) (A) (A) (A) (A) (A) (A)
                 (A) (A) (A) (A) (A) (A) (A) (A) (A) (A) (A) (A)
                 (A) (A) (A) (A) (A) (A) (A) (A) (A) (A) (A) (A)
                 (A) (A) (A) (A) (A) (A) (A) (A) (A) (A) (A) (A)
                 (A) (A) (A) (A) (A) (A) (A) (A) (A) (A) (A) (A)
                 (A) (A) (A) (A) (A) (A) (A) (A) (A) (A) (A) (A)
                 (A) (A) (A) (A) (A) (A) (A) (A) (A) (A) (A) (A)
                 (A) (A) (A) (A) (A) (A) (A) (A) (A) (A) (A) (A)
                 (A) (A) (A) (A) (A) (A) (A) (A) (A) (A) (A) (A)
                 (A) (A) (A) (A) (A) (A) (A) (A) (A) (A) (A) (A)
                 (A) (A) (A) (A) (A) (A) (A) (A) (A) (A) (A) (A)
                 (A) (A) (A) (A) (A) (A) (A) (A) (A) (A) (A) (A)
                 (A) (A) (A) (A) (A) (A) (A) (A) (A) (A) (A) (A)
                 (A) (A) (A) (A) (A) (A) (A) (A) (A) (A) (A) (A)
                 (A) (A) (A) (A) (A) (A) (A) (A) (A) (A) (A) (A)
                 (A) (A) (A) (A) (A) (A) (A) (A) (A) (A) (A) (A)
                 (A) (A) (A) (A) (A) (A) (A) (A) (A) (A) (A) (A)
                 (A) (A) (A) (A) (A) (A) (A) (A) (A) (A) (A) (A)
                 (A) (A) (A) (A) (A) (A) (A) (A) (A) (A) (A) (A)
                 (A) (A) (A) (A) (A) (A) (A) (A) (A) (A) (A) (A)
                 (A) (A) (A) (A) (A) (A) (A) (A) (A) (A) (A) (A)
                 (A) (A) (A) (A) (A) (A) (A) (A) (A) (A) (A) (A)
                 (A) (A) (A) (A) (A) (A) (A) (A) (A) (A) (A) (A)
                 (A) (A) (A) (A) (A) (A) (A) (A) (A) (A) (A) (A)
                 (A) (A) (A) (A) (A) (A) (A) (A) (A) (A) (A) (A)
                 (A) (A) (A) (A) (A) (A) (A) (A) (A) (A) (A) (A)
                 (A) (A) (A) (A) (A) (A) (A) (A) (A) (A) (A) (A)
                 (A) (A) (A) (A) (A) (A) (A) (A) (A) (A) (A) (A)
                 (A) (A) (A) (A) (A) (A) (A) (A) (A) (A) (A) (A)
                 (A) (A) (A) (A) (A) (A) (A) (A) (A) (A) (A) (A)
                 (A) (A) (A) (A) (A) (A) (A) (A) (A) (A) (A) (A)
                 (A) (A) (A) (A) (A) (A) (A) (A) (A) (A) (A) (A)
                 (A) (A) (A) (A) (A) (A) (A) (A) (A) (A) (A) (A)
                 (A) (A) (A) (A) (A) (A) (A) (A) (A) (A) (A) (A)
                 (A) (A) (A) (A) (A) (A) (A) (A) (A) (A) (A) (A)
                 (A) (A) (A) (A) (A) (A) (A) (A) (A) (A) (A) (A)
                 (A) (A) (A) (A) (A) (A) (A) (A) (A) (A) (A) (A)
                 (A) (A) (A) (A) (A) (A) (A) (A) (A) (A) (A) (A)
                 (A) (A) (A) (A) (A) (A) (A) (A) (A) (A) (A) (A)
                 (A) (A) (A) (A) (A) (A) (A) (A) (A) (A) (A) (A)
                 (A) (A) (A) (A) (A) (A) (A) (A) (A) (A) (A) (A)
                 (A) (A) (A) (A) (A) (A) (A) (A) (A) (A) (A) (A)
                 (A) (A) (A) (A) (A) (A) (A) (A) (A) (A) (A) (A)
                 (A) (A) (A) (A) (A) (A) (A) (A) (A) (A) (A) (A)
                 (A) (A) (A) (A) (A) (A) (A) (A) (A) (A) (A) (A)
                 (A) (A) (A) (A) (A) (A) (A) (A) (A) (A) (A) (A)
                 (A) (A) (A) (A) (A) (A) (A) (A) (A) (A) (A) (A)
                 (A) (A) (A) (A) (A) (A) (A) (A) (A) (A) (A) (A)
                 (A) (A) (A) (A) (A) (A) (A) (A) (A) (A) (A) (A)
                 (A) (A) (A) (A) (A) (A) (A) (A) (A) (A) (A) (A)
                 (A) (A) (A) (A) (A) (A) (A) (A) (A) (A) (A) (A)
                 (A) (A) (A) (A) (A) (A) (A) (A) (A) (A) (A) (A)
                 (A) (A) (A) (A) (A) (A) (A) (A) (A) (A) (A) (A)
                 (A) (A) (A) (A) (A) (A) (A) (A) (A) (A) (A) (A)
                 (A) (A) (A) (A) (A) (A) (A) (A) (A) (A) (A) (A)
                 (A) (A) (A) (A) (A) (A) (A) (A) (A) (A) (A) (A)
                 (A) (A) (A) (A) (A) (A) (A) (A) (A) (A) (A) (A)
                 (A) (A) (A) (A) (A) (A) (A) (A) (A) (A) (A) (A)
                 (A) (A) (A) (A) (A) (A) (A) (A) (A) (A) (A) (A)
                 (A) (A) (A) (A) (A) (A) (A) (A) (A) (A) (A) (A)
                 (A) (A) (A) (A) (A) (A) (A) (A) (A) (A) (A) (A)
                 (A) (A) (A) (A) (A) (A) (A) (A) (A) (A) (A) (A)
                 (A) (A) (A) (A) (A) (A) (A) (A) (A) (A) (A) (A)
                 (A) (A) (A) (A) (A) (A) (A) (A) (A) (A) (A) (A)
                 (A) (A) (A) (A) (A) (A) (A) (A) (A) (A) (A) (A)
                 (A) (A) (A) (A) (A) (A) (A) (A) (A) (A) (A) (A)
                 (A) (A) (A) (A) (A) (A) (A) (A) (A) (A) (A) (A)
                 (A) (A) (A) (A) (A) (A) (A) (A) (A) (A) (A) (A)
                 (A) (A) (A) (A) (A) (A) (A) (A) (A) (A) (A) (A)
                 (A) (A) (A) (A) (A) (A) (A) (A) (A) (A) (A) (A)
                 (A) (A) (A) (A) (A) (A) (A) (A) (A) (A) (A) (A)
                 (A) (A) (A) (A) (A) (A) (A) (A) (A) (A) (A) (A)
                 (A) (A) (A) (A) (A) (A) (A) (A) (A) (A) (A) (A)
                 (A) (A) (A) (A) (A) (A) (A) (A) (A) (A) (A) (A)
                 (A) (A) (A) (A) (A) (A) (A) (A) (A) (A) (A) (A)
                 (A) (A) (A) (A) (A) (A) (A) (A) (A) (A) (A) (A)
                 (A) (A) (A) (A) (A) (A) (A) (A) (A) (A) (A) (A)
                 (A) (A) (A) (A) (A) (A) (A) (A) (A) (A) (A) (A)
                 (A) (A) (A) (A) (A) (A) (A) (A) (A) (A) (A) (A)
                 (A) (A) (A) (A) (A) (A) (A) (A) (A) (A) (A) (A)
                 (A) (A) (A) (A) (A) (A) (A) (A) (A) (A) (A) (A)
                 (A) (A) (A) (A) (A) (A) (A) (A) (A) (A) (A) (A)
                 (A) (A) (A) (A) (A) (A) (A) (A) (A) (A) (A) (A)
                 (A) (A) (A) (A) (A) (A) (A) (A) (A) (A) (A) (A)
                 (A) (A) (A) (A) (A) (A) (A) (A) (A) (A) (A) (A)
                 (A) (A) (A) (A) (A) (A) (A) (A) (A) (A) (A) (A)
                 (A) (A) (A) (A) (A) (A) (A) (A) (A) (A) (A) (A)
                 (A) (A) (A) (A) (A) (A) (A) (A) (A) (A) (A) (A)
                 (A) (A) (A) (A) (A) (A) (A) (A) (A) (A) (A) (A)
                 (A) (A) (A) (A) (A) (A) (A) (A) (A) (A) (A) (A)
                 (A) (A) (A) (A) (A) (A) (A) (A) (A) (A) (A) (A)
                 (A) (A) (A) (A) (A) (A) (A) (A) (A) (A) (A) (A)
                 (A) (A) (A) (A) (A) (A) (A) (A) (A) (A) (A) (A)
                 (A) (A) (A) (A) (A) (A) (A) (A) (A) (A) (A) (A)
                 (A) (A) (A) (A) (A) (A) (A) (A) (A) (A) (A) (A)
                 (A) (A) (A) (A) (A) (A) (A) (A) (A) (A) (A) (A)
                 (A) (A) (A) (A) (A) (A) (A) (A) (A) (A) (A) (A)
                 (A) (A) (A) (A) (A) (A) (A) (A) (A) (A) (A) (A)
                 (A) (A) (A) (A) (A) (A) (A) (A) (A) (A) (A) (A)
                 (A) (A) (A) (A) (A) (A) (A) (A) (A) (A) (A) (A)
                 (A) (A) (A) (A) (A) (A) (A) (A) (A) (A) (A) (A)
                 (A) (A) (A) (A) (A) (A) (A) (A) (A) (A) (A) (A)
                 (A) (A) (A) (A) (A) (A) (A) (A) (A) (A) (A) (A)
                 (A) (A) (A) (A) (A) (A) (A) (A) (A) (A) (A) (A)
                 (A) (A) (A) (A) (A) (A) (A) (A) (A) (A) (A) (A)
                 (A) (A) (A) (A) (A) (A) (A) (A) (A) (A) (A) (A)
                 (A) (A) (A) (A) (A) (A) (A) (A) (A) (A) (A) (A)
                 (A) (A) (A) (A) (A) (A) (A) (A) (A) (A) (A) (A)
                 (A) (A) (A) (A) (A) (A) (A) (A) (A) (A) (A) (A)
                 (A) (A) (A) (A) (A) (A) (A) (A) (A) (A) (A) (A)
                 (A) (A) (A) (A) (A) (A) (A) (A) (A) (A) (A) (A)
                 (A) (A) (A) (A) (A) (A) (A) (A) (A) (A) (A) (A)
                 (A) (A) (A) (A) (A) (A) (A) (A) (A) (A) (A) (A)
                 (A) (A) (A) (A) (A) (A) (A) (A) (A) (A) (A) (A)
                 (A) (A) (A) (A) (A) (A) (A) (A) (A) (A) (A) (A)
                 (A) (A) (A) (A) (A) (A) (A) (A) (A) (A) (A) (A)
                 (A) (A) (A) (A) (A) (A) (A) (A) (A) (A) (A) (A)
 The electronic state is 1-A.
 Alpha  occ. eigenvalues --  -25.20813 -25.20786 -19.69141 -19.63724 -14.79172
 Alpha  occ. eigenvalues --  -14.79168 -14.78884 -14.78880 -14.77538 -10.70706
 Alpha  occ. eigenvalues --  -10.61426 -10.61422 -10.61218 -10.60752 -10.60660
 Alpha  occ. eigenvalues --  -10.60491 -10.60137 -10.60133 -10.59498 -10.59495
 Alpha  occ. eigenvalues --  -10.59494 -10.59492 -10.59487 -10.59486 -10.58300
 Alpha  occ. eigenvalues --  -10.58063 -10.58040 -10.58036 -10.57861 -10.57534
 Alpha  occ. eigenvalues --  -10.57410 -10.57408 -10.57047 -10.56956 -10.56953
 Alpha  occ. eigenvalues --  -10.56934 -10.56369 -10.56364 -10.56359 -10.56298
 Alpha  occ. eigenvalues --  -10.56268 -10.56266 -10.55929 -10.55928 -10.55925
 Alpha  occ. eigenvalues --  -10.55925 -10.55536 -10.55536 -10.55282 -10.55282
 Alpha  occ. eigenvalues --  -10.55249 -10.55248 -10.55247 -10.55247 -10.55102
 Alpha  occ. eigenvalues --  -10.55101 -10.55098 -10.55097 -10.55093 -10.55091
 Alpha  occ. eigenvalues --  -10.55088 -10.55088 -10.54973 -10.54971 -10.54966
 Alpha  occ. eigenvalues --  -10.54964 -10.54955 -10.54953 -10.54947 -10.54947
 Alpha  occ. eigenvalues --  -10.54687 -10.54685 -10.54635 -10.54632 -10.54625
 Alpha  occ. eigenvalues --  -10.54623 -10.54262 -10.54255  -7.13646  -1.32747
 Alpha  occ. eigenvalues --   -1.29519  -1.25201  -1.15581  -1.11567  -1.09782
 Alpha  occ. eigenvalues --   -1.08646  -1.08646  -1.03456  -1.00069  -0.98602
 Alpha  occ. eigenvalues --   -0.97635  -0.97632  -0.96804  -0.96802  -0.95300
 Alpha  occ. eigenvalues --   -0.95050  -0.95044  -0.93821  -0.93323  -0.92515
 Alpha  occ. eigenvalues --   -0.89582  -0.89489  -0.88798  -0.87944  -0.86931
 Alpha  occ. eigenvalues --   -0.86419  -0.86417  -0.86284  -0.85952  -0.85241
 Alpha  occ. eigenvalues --   -0.85195  -0.85195  -0.85144  -0.84797  -0.84795
 Alpha  occ. eigenvalues --   -0.84181  -0.83873  -0.83082  -0.81632  -0.81601
 Alpha  occ. eigenvalues --   -0.80378  -0.79822  -0.78620  -0.77579  -0.74322
 Alpha  occ. eigenvalues --   -0.73773  -0.72980  -0.72949  -0.72082  -0.72080
 Alpha  occ. eigenvalues --   -0.71630  -0.71259  -0.69962  -0.69857  -0.69857
 Alpha  occ. eigenvalues --   -0.69496  -0.69270  -0.69150  -0.69110  -0.69108
 Alpha  occ. eigenvalues --   -0.67915  -0.67240  -0.66093  -0.65813  -0.65670
 Alpha  occ. eigenvalues --   -0.65320  -0.64392  -0.62663  -0.62398  -0.62070
 Alpha  occ. eigenvalues --   -0.61689  -0.61660  -0.61657  -0.60794  -0.60313
 Alpha  occ. eigenvalues --   -0.60137  -0.60124  -0.58866  -0.57767  -0.57413
 Alpha  occ. eigenvalues --   -0.57107  -0.57098  -0.56602  -0.56177  -0.56171
 Alpha  occ. eigenvalues --   -0.56118  -0.55909  -0.54845  -0.54845  -0.54598
 Alpha  occ. eigenvalues --   -0.54411  -0.54135  -0.53864  -0.53120  -0.53003
 Alpha  occ. eigenvalues --   -0.52994  -0.52779  -0.52635  -0.52628  -0.52009
 Alpha  occ. eigenvalues --   -0.51783  -0.51747  -0.51523  -0.51200  -0.51082
 Alpha  occ. eigenvalues --   -0.50901  -0.50702  -0.50658  -0.50375  -0.50353
 Alpha  occ. eigenvalues --   -0.50345  -0.50005  -0.49996  -0.49921  -0.49917
 Alpha  occ. eigenvalues --   -0.49502  -0.49500  -0.49346  -0.49312  -0.49310
 Alpha  occ. eigenvalues --   -0.49120  -0.48317  -0.48031  -0.47979  -0.47946
 Alpha  occ. eigenvalues --   -0.47746  -0.47718  -0.46778  -0.46706  -0.46690
 Alpha  occ. eigenvalues --   -0.46621  -0.46200  -0.45888  -0.45777  -0.45600
 Alpha  occ. eigenvalues --   -0.45407  -0.45383  -0.45290  -0.45207  -0.45115
 Alpha  occ. eigenvalues --   -0.44907  -0.44905  -0.44526  -0.43927  -0.43760
 Alpha  occ. eigenvalues --   -0.43310  -0.42872  -0.42869  -0.42856  -0.42757
 Alpha  occ. eigenvalues --   -0.42558  -0.42334  -0.42314  -0.42010  -0.41595
 Alpha  occ. eigenvalues --   -0.41369  -0.41053  -0.40929  -0.40883  -0.40773
 Alpha  occ. eigenvalues --   -0.40771  -0.40695  -0.40626  -0.38537  -0.38053
 Alpha  occ. eigenvalues --   -0.37914  -0.37618  -0.35237  -0.34283  -0.34082
 Alpha  occ. eigenvalues --   -0.33687  -0.33599  -0.33567  -0.33177  -0.32736
 Alpha  occ. eigenvalues --   -0.32735  -0.32671  -0.32529  -0.32527  -0.31481
 Alpha  occ. eigenvalues --   -0.31479  -0.31358  -0.31339  -0.29210  -0.29004
 Alpha  occ. eigenvalues --   -0.28709  -0.26268  -0.24030  -0.23331
 Alpha virt. eigenvalues --   -0.09062  -0.08305  -0.02462  -0.02248  -0.01248
 Alpha virt. eigenvalues --   -0.00622  -0.00620  -0.00551   0.00106   0.00107
 Alpha virt. eigenvalues --    0.00412   0.02026   0.02028   0.02170   0.02173
 Alpha virt. eigenvalues --    0.02949   0.03292   0.04044   0.04641   0.04695
 Alpha virt. eigenvalues --    0.04880   0.05234   0.06111   0.06408   0.06583
 Alpha virt. eigenvalues --    0.06765   0.06842   0.06972   0.07262   0.07387
 Alpha virt. eigenvalues --    0.07471   0.07808   0.08796   0.08883   0.08930
 Alpha virt. eigenvalues --    0.09036   0.09155   0.09166   0.09480   0.09659
 Alpha virt. eigenvalues --    0.09841   0.10086   0.10187   0.10412   0.10428
 Alpha virt. eigenvalues --    0.10495   0.10605   0.11048   0.11109   0.11210
 Alpha virt. eigenvalues --    0.11668   0.11696   0.11903   0.12068   0.12288
 Alpha virt. eigenvalues --    0.12495   0.12842   0.12851   0.13115   0.13232
 Alpha virt. eigenvalues --    0.13381   0.13391   0.13741   0.13839   0.13847
 Alpha virt. eigenvalues --    0.13875   0.14227   0.14520   0.14610   0.14770
 Alpha virt. eigenvalues --    0.14881   0.15024   0.15193   0.15211   0.15688
 Alpha virt. eigenvalues --    0.15859   0.16001   0.16382   0.16810   0.16834
 Alpha virt. eigenvalues --    0.16947   0.16989   0.17010   0.17223   0.17242
 Alpha virt. eigenvalues --    0.17351   0.17511   0.17583   0.17860   0.17944
 Alpha virt. eigenvalues --    0.18064   0.18202   0.18369   0.18716   0.18896
 Alpha virt. eigenvalues --    0.18992   0.19090   0.19239   0.19465   0.19601
 Alpha virt. eigenvalues --    0.19703   0.19738   0.19969   0.20129   0.20151
 Alpha virt. eigenvalues --    0.20237   0.20319   0.20682   0.21099   0.21142
 Alpha virt. eigenvalues --    0.21200   0.21242   0.21332   0.21342   0.21676
 Alpha virt. eigenvalues --    0.21814   0.21988   0.22258   0.22307   0.22404
 Alpha virt. eigenvalues --    0.22475   0.22604   0.22713   0.22757   0.22841
 Alpha virt. eigenvalues --    0.22917   0.22946   0.23202   0.23366   0.23383
 Alpha virt. eigenvalues --    0.23545   0.23675   0.23721   0.23776   0.23850
 Alpha virt. eigenvalues --    0.24047   0.24344   0.24471   0.24745   0.24805
 Alpha virt. eigenvalues --    0.24838   0.24962   0.25089   0.25161   0.25392
 Alpha virt. eigenvalues --    0.25557   0.25607   0.25745   0.25940   0.26091
 Alpha virt. eigenvalues --    0.26132   0.26341   0.26401   0.26523   0.26561
 Alpha virt. eigenvalues --    0.26610   0.26635   0.26830   0.26891   0.27058
 Alpha virt. eigenvalues --    0.27565   0.27622   0.27885   0.27923   0.28064
 Alpha virt. eigenvalues --    0.28192   0.28375   0.28441   0.28602   0.28709
 Alpha virt. eigenvalues --    0.28740   0.28951   0.29046   0.29263   0.29337
 Alpha virt. eigenvalues --    0.29472   0.29556   0.29595   0.29685   0.30073
 Alpha virt. eigenvalues --    0.30256   0.30345   0.30403   0.30654   0.30674
 Alpha virt. eigenvalues --    0.30808   0.31170   0.31321   0.31473   0.31563
 Alpha virt. eigenvalues --    0.31893   0.32006   0.32079   0.32358   0.32408
 Alpha virt. eigenvalues --    0.32472   0.32565   0.32736   0.32780   0.32909
 Alpha virt. eigenvalues --    0.32931   0.33244   0.33392   0.33546   0.33670
 Alpha virt. eigenvalues --    0.33692   0.33845   0.33914   0.33963   0.34074
 Alpha virt. eigenvalues --    0.34137   0.34300   0.34388   0.34643   0.34777
 Alpha virt. eigenvalues --    0.34969   0.35088   0.35103   0.35138   0.35186
 Alpha virt. eigenvalues --    0.35291   0.35391   0.35712   0.35911   0.36007
 Alpha virt. eigenvalues --    0.36110   0.36249   0.36481   0.36717   0.36756
 Alpha virt. eigenvalues --    0.37008   0.37239   0.37363   0.37553   0.37715
 Alpha virt. eigenvalues --    0.38096   0.38144   0.38215   0.38536   0.38730
 Alpha virt. eigenvalues --    0.38790   0.38825   0.38952   0.39022   0.39072
 Alpha virt. eigenvalues --    0.39158   0.39320   0.39466   0.39526   0.39648
 Alpha virt. eigenvalues --    0.39687   0.39787   0.39890   0.40003   0.40070
 Alpha virt. eigenvalues --    0.40292   0.40399   0.40459   0.40618   0.40695
 Alpha virt. eigenvalues --    0.40775   0.41102   0.41258   0.41318   0.41348
 Alpha virt. eigenvalues --    0.41422   0.41591   0.41648   0.41730   0.41769
 Alpha virt. eigenvalues --    0.41867   0.41924   0.41973   0.41987   0.42130
 Alpha virt. eigenvalues --    0.42203   0.42345   0.42566   0.42699   0.42784
[...]
 Alpha virt. eigenvalues --    4.49064   4.49239   4.49266   4.49576   4.50139
 Alpha virt. eigenvalues --    4.50686   4.51695   4.52003   4.52017   4.52105
 Alpha virt. eigenvalues --    4.52226   4.52644   4.52732   4.53457   4.53821
 Alpha virt. eigenvalues --    4.54037   4.54477   4.54756   4.54847   4.55306
 Alpha virt. eigenvalues --    4.55721   4.55926   4.56443   4.56959   4.57169
 Alpha virt. eigenvalues --    4.57420   4.57524   4.57636   4.57654   4.58450
 Alpha virt. eigenvalues --    4.58528   4.58676   4.59256   4.59409   4.59973
 Alpha virt. eigenvalues --    4.60073   4.60460   4.60777   4.61265   4.61418
 Alpha virt. eigenvalues --    4.61719   4.61829   4.61831   4.62183   4.62439
 Alpha virt. eigenvalues --    4.62466   4.62520   4.62586   4.63372   4.63655
 Alpha virt. eigenvalues --    4.63953   4.64176   4.64613   4.64726   4.64756
 Alpha virt. eigenvalues --    4.64802   4.65237   4.65677   4.66674   4.66843
 Alpha virt. eigenvalues --    4.66871   4.67072   4.67569   4.67646   4.67851
 Alpha virt. eigenvalues --    4.68032   4.68302   4.68582   4.68923   4.69455
 Alpha virt. eigenvalues --    4.69808   4.70468   4.70714   4.70752   4.70896
 Alpha virt. eigenvalues --    4.71064   4.71138   4.71311   4.71326   4.71445
 Alpha virt. eigenvalues --    4.71460   4.71487   4.71537   4.71885   4.71920
 Alpha virt. eigenvalues --    4.71939   4.72087   4.72769   4.72958   4.72968
 Alpha virt. eigenvalues --    4.73443   4.73546   4.73710   4.74195   4.74487
 Alpha virt. eigenvalues --    4.74517   4.74698   4.74934   4.75195   4.75859
 Alpha virt. eigenvalues --    4.76424   4.77721   4.78180   4.78220   4.78315
 Alpha virt. eigenvalues --    4.78498   4.78760   4.79427   4.79625   4.79636
 Alpha virt. eigenvalues --    4.80057   4.80525   4.81114   4.81429   4.82684
 Alpha virt. eigenvalues --    4.83329   4.83480   4.84042   4.84098   4.84135
 Alpha virt. eigenvalues --    4.84175   4.84308   4.85379   4.86206   4.86456
 Alpha virt. eigenvalues --    4.86655   4.86774   4.87511   4.87933   4.88122
 Alpha virt. eigenvalues --    4.88405   4.88532   4.89009   4.89158   4.89716
 Alpha virt. eigenvalues --    4.89898   4.90322   4.90448   4.90630   4.91196
 Alpha virt. eigenvalues --    4.91423   4.91938   4.92894   4.93402   4.93471
 Alpha virt. eigenvalues --    4.93809   4.94042   4.94090   4.94337   4.94438
 Alpha virt. eigenvalues --    4.94628   4.94702   4.94855   4.95085   4.95617
 Alpha virt. eigenvalues --    4.96015   4.96041   4.96826   4.96982   4.97111
 Alpha virt. eigenvalues --    4.97231   4.97427   4.98790   4.98961   4.99088
 Alpha virt. eigenvalues --    4.99598   5.00566   5.00638   5.01020   5.01421
 Alpha virt. eigenvalues --    5.01530   5.03323   5.03632   5.03705   5.04101
 Alpha virt. eigenvalues --    5.04264   5.04779   5.04975   5.05553   5.05631
 Alpha virt. eigenvalues --    5.05832   5.06643   5.06985   5.07344   5.08129
 Alpha virt. eigenvalues --    5.08382   5.08666   5.08755   5.09723   5.10435
 Alpha virt. eigenvalues --    5.10758   5.11061   5.11147   5.11481   5.11658
 Alpha virt. eigenvalues --    5.11768   5.11894   5.12755   5.12879   5.12980
 Alpha virt. eigenvalues --    5.13496   5.13953   5.14084   5.14151   5.14164
 Alpha virt. eigenvalues --    5.14540   5.15034   5.15772   5.16224   5.17042
 Alpha virt. eigenvalues --    5.17081   5.17213   5.17362   5.18531   5.18688
 Alpha virt. eigenvalues --    5.18761   5.18927   5.18994   5.19380   5.19763
 Alpha virt. eigenvalues --    5.20240   5.21326   5.21649   5.21903   5.22704
 Alpha virt. eigenvalues --    5.22751   5.22804   5.23600   5.23696   5.24007
 Alpha virt. eigenvalues --    5.24589   5.24967   5.25663   5.26344   5.26770
 Alpha virt. eigenvalues --    5.26859   5.26885   5.27285   5.27582   5.27620
 Alpha virt. eigenvalues --    5.27839   5.28145   5.28555   5.28569   5.28614
 Alpha virt. eigenvalues --    5.28629   5.29287   5.29359   5.29713   5.29789
 Alpha virt. eigenvalues --    5.30050   5.30280   5.30420   5.31218   5.31504
 Alpha virt. eigenvalues --    5.32819   5.32967   5.33086   5.33631   5.33916
 Alpha virt. eigenvalues --    5.34067   5.34093   5.34224   5.34583   5.34930
 Alpha virt. eigenvalues --    5.35461   5.36080   5.36686   5.36695   5.36835
 Alpha virt. eigenvalues --    5.37397   5.37604   5.38479   5.38513   5.38673
 Alpha virt. eigenvalues --    5.39087   5.39137   5.39193   5.39232   5.39524
 Alpha virt. eigenvalues --    5.40036   5.40322   5.40923   5.41214   5.41754
 Alpha virt. eigenvalues --    5.41814   5.42111   5.42492   5.43631   5.44283
 Alpha virt. eigenvalues --    5.44306   5.45077   5.45598   5.45920   5.46171
 Alpha virt. eigenvalues --    5.46246   5.47352   5.47844   5.48606   5.48664
 Alpha virt. eigenvalues --    5.49044   5.49167   5.50587   5.50743   5.51288
 Alpha virt. eigenvalues --    5.51550   5.51663   5.52855   5.53090   5.53137
 Alpha virt. eigenvalues --    5.53568   5.54450   5.54701   5.54921   5.55345
 Alpha virt. eigenvalues --    5.55801   5.56049   5.56978   5.57124   5.57290
 Alpha virt. eigenvalues --    5.57704   5.58020   5.58296   5.58901   5.58970
 Alpha virt. eigenvalues --    5.59190   5.59963   5.60148   5.60488   5.61159
 Alpha virt. eigenvalues --    5.61267   5.61584   5.62440   5.62723   5.62903
 Alpha virt. eigenvalues --    5.63230   5.63693   5.64569   5.64951   5.65228
 Alpha virt. eigenvalues --    5.65458   5.65746   5.67010   5.68261   5.68707
 Alpha virt. eigenvalues --    5.68763   5.68832   5.69027   5.69593   5.71163
 Alpha virt. eigenvalues --    5.71420   5.73038   5.73452   5.73833   5.74968
 Alpha virt. eigenvalues --    5.75150   5.75582   5.75736   5.76233   5.77472
 Alpha virt. eigenvalues --    5.77572   5.78797   5.79835   5.80254   5.82296
 Alpha virt. eigenvalues --    5.84604   5.85831   5.86236   5.90930   5.91182
 Alpha virt. eigenvalues --    5.93164   5.93322   5.93709   5.93776   5.94824
 Alpha virt. eigenvalues --    5.95586   5.97011   5.98406   6.00068   6.00125
 Alpha virt. eigenvalues --    6.00344   6.00445   6.01404   6.01634   6.02395
 Alpha virt. eigenvalues --    6.02439   6.03282   6.03424   6.06252   6.07016
 Alpha virt. eigenvalues --    6.07016   6.10656   6.10690   6.10878   6.12659
 Alpha virt. eigenvalues --    6.12662   6.14531   6.15281   6.15299   6.16493
 Alpha virt. eigenvalues --    6.16736   6.16758   6.18854   6.27090   6.31704
 Alpha virt. eigenvalues --    6.31998   6.36417   6.40211   6.47124   6.54005
 Alpha virt. eigenvalues --    6.54027   6.54366   6.54692   6.60243   6.61454
 Alpha virt. eigenvalues --    6.61454   6.67102   6.67744   6.67752   6.69722
 Alpha virt. eigenvalues --    6.82131   6.82845   6.93528   6.93654   6.96986
 Alpha virt. eigenvalues --    6.97844   6.98031   6.98751   6.99190   7.05284
 Alpha virt. eigenvalues --    7.06282   7.11969   7.17010   7.21412   7.23297
 Alpha virt. eigenvalues --    7.24347   7.25816   7.33332   7.34980   7.36121
 Alpha virt. eigenvalues --    7.49982   8.42726   8.44797   8.56447   8.58284
 Alpha virt. eigenvalues --    8.81497   8.88291   8.89919   8.90055   8.92211
 Alpha virt. eigenvalues --    8.99587  15.88931  22.83566  22.83579  22.85379
 Alpha virt. eigenvalues --   22.85471  22.86069  22.86147  22.89178  22.90303
 Alpha virt. eigenvalues --   22.90779  22.97871  23.02356  23.11837  23.12629
 Alpha virt. eigenvalues --   23.13172  23.15028  23.15478  23.16290  23.16307
 Alpha virt. eigenvalues --   23.16422  23.16770  23.16781  23.23723  23.25628
 Alpha virt. eigenvalues --   23.25628  23.26032  23.26033  23.26190  23.27026
 Alpha virt. eigenvalues --   23.27057  23.27189  23.27193  23.29093  23.31510
 Alpha virt. eigenvalues --   23.32028  23.32145  23.32372  23.33272  23.34615
 Alpha virt. eigenvalues --   23.35664  23.35668  23.36130  23.37111  23.37723
 Alpha virt. eigenvalues --   23.37738  23.38443  23.38452  23.40433  23.43311
 Alpha virt. eigenvalues --   23.47908  23.50393  23.58008  23.71123  23.73375
 Alpha virt. eigenvalues --   23.77928  23.79099  23.81487  23.90886  24.00934
 Alpha virt. eigenvalues --   24.01918  24.06691  24.06698  24.07286  24.07288
 Alpha virt. eigenvalues --   24.13079  24.29200  24.32413  24.33230  24.44540
 Alpha virt. eigenvalues --   24.44666  32.25468  33.12644  33.31489  33.44358
 Alpha virt. eigenvalues --   33.44377  44.01912  44.14110  57.27438  57.56160
          Condensed to atoms (all electrons):
 Mulliken charges:
               1
     1  C   -0.436935
     2  C    0.089219
     3  C    0.075358
     4  C   -0.141411
     5  C   -0.049045
     6  C   -0.059529
     7  C   -0.126532
     8  C   -0.170031
     9  C    0.024726
    10  N   -0.107430
    11  C    0.000377
    12  C   -0.163522
    13  C   -0.143698
    14  C   -0.167568
    15  C   -0.144849
    16  C   -0.152880
    17  C    0.002589
    18  C   -0.164111
    19  C   -0.143903
    20  C   -0.168057
    21  C   -0.145012
    22  C   -0.153731
    23  C   -0.169683
    24  C   -0.125606
    25  C    0.089470
    26  C   -0.406865
    27  N   -0.092156
    28  C    0.102135
    29  C    0.112168
    30  C   -0.259140
    31  C   -0.186398
    32  C   -0.077237
    33  C    0.018229
    34  C    0.040667
    35  C   -0.141883
    36  C   -0.112797
    37  C    0.000549
    38  C    0.043917
    39  C   -0.029931
    40  C   -0.185671
    41  N   -0.070579
    42  C    0.404283
    43  O   -0.394865
    44  O   -0.322950
    45  C   -0.139264
    46  C   -0.164348
    47  C   -0.075928
    48  C   -0.189683
    49  C    0.101311
    50  C    0.088891
    51  C   -0.437390
    52  C    0.075641
    53  C   -0.141086
    54  C   -0.049222
    55  C   -0.059270
    56  C   -0.125759
    57  C   -0.169540
    58  C    0.024194
    59  N   -0.107413
    60  C    0.000345
    61  C   -0.153274
    62  C   -0.144858
    63  C   -0.167672
    64  C   -0.143777
    65  C   -0.163111
    66  C    0.002390
    67  C   -0.163862
    68  C   -0.144030
    69  C   -0.167938
    70  C   -0.144862
    71  C   -0.153916
    72  C   -0.170044
    73  C   -0.126282
    74  C    0.088935
    75  C   -0.406873
    76  N   -0.092589
    77  B    0.385560
    78  F   -0.349569
    79  F   -0.348656
    80  H    0.166243
    81  H    0.162894
    82  H    0.126455
    83  H    0.156002
    84  H    0.176053
    85  H    0.175316
    86  H    0.157764
    87  H    0.157862
    88  H    0.157972
    89  H    0.171652
    90  H    0.175292
    91  H    0.157680
    92  H    0.157773
    93  H    0.157912
    94  H    0.171683
    95  H    0.175794
    96  H    0.156444
    97  H    0.161675
    98  H    0.131621
    99  H    0.163202
   100  H    0.172771
   101  H    0.159550
   102  H    0.160269
   103  H    0.151509
   104  H    0.136957
   105  H    0.276713
   106  H    0.157551
   107  H    0.160397
   108  H    0.159152
   109  H    0.173427
   110  H    0.162779
   111  H    0.126393
   112  H    0.166630
   113  H    0.156491
   114  H    0.175983
   115  H    0.171782
   116  H    0.157985
   117  H    0.157873
   118  H    0.157772
   119  H    0.175211
   120  H    0.175341
   121  H    0.157656
   122  H    0.157694
   123  H    0.157843
   124  H    0.171709
   125  H    0.175972
   126  H    0.155990
   127  H    0.162072
   128  H    0.163041
   129  H    0.131465
 Sum of Mulliken charges =  -0.00000
 Mulliken charges with hydrogens summed into heavy atoms:
               1
     1  C    0.018657
     2  C    0.089219
     3  C    0.075358
     4  C   -0.141411
     5  C   -0.049045
     6  C   -0.059529
     7  C    0.029470
     8  C    0.006022
     9  C    0.024726
    10  N   -0.107430
    11  C    0.000377
    12  C    0.011794
    13  C    0.014066
    14  C   -0.009706
    15  C    0.013123
    16  C    0.018771
    17  C    0.002589
    18  C    0.011180
    19  C    0.013777
    20  C   -0.010284
    21  C    0.012901
    22  C    0.017951
    23  C    0.006112
    24  C    0.030839
    25  C    0.089470
    26  C    0.049633
    27  N   -0.092156
    28  C    0.102135
    29  C    0.112168
    30  C   -0.259140
    31  C   -0.013626
    32  C    0.082313
    33  C    0.018229
    34  C    0.040667
    35  C    0.018385
    36  C    0.038712
    37  C    0.000549
    38  C    0.180874
    39  C   -0.029931
    40  C   -0.185671
    41  N   -0.070579
    42  C    0.404283
    43  O   -0.394865
    44  O   -0.046236
    45  C    0.018287
    46  C   -0.003951
    47  C    0.083223
    48  C   -0.016256
    49  C    0.101311
    50  C    0.088891
    51  C    0.018412
    52  C    0.075641
    53  C   -0.141086
    54  C   -0.049222
    55  C   -0.059270
    56  C    0.030731
    57  C    0.006442
    58  C    0.024194
    59  N   -0.107413
    60  C    0.000345
    61  C    0.018507
    62  C    0.013127
    63  C   -0.009799
    64  C    0.013995
    65  C    0.012100
    66  C    0.002390
    67  C    0.011479
    68  C    0.013626
    69  C   -0.010244
    70  C    0.012981
    71  C    0.017792
    72  C    0.005929
    73  C    0.029708
    74  C    0.088935
    75  C    0.049705
    76  N   -0.092589
    77  B    0.385560
    78  F   -0.349569
    79  F   -0.348656
 Electronic spatial extent (au):  <R**2>=         181879.1050
 Charge=             -0.0000 electrons
 Dipole moment (field-independent basis, Debye):
    X=             -1.9425    Y=              2.0963    Z=             -3.2972  Tot=              4.3634
 Quadrupole moment (field-independent basis, Debye-Ang):
   XX=           -350.2882   YY=           -482.4031   ZZ=           -451.7114
   XY=            -19.1285   XZ=             -5.2485   YZ=            -24.8772
 Traceless Quadrupole moment (field-independent basis, Debye-Ang):
   XX=             77.8460   YY=            -54.2689   ZZ=            -23.5772
   XY=            -19.1285   XZ=             -5.2485   YZ=            -24.8772
 Octapole moment (field-independent basis, Debye-Ang**2):
  XXX=            -47.5531  YYY=           -313.2151  ZZZ=            -38.1137  XYY=           -133.5789
  XXY=           -337.4787  XXZ=            -17.4315  XZZ=            -30.8902  YZZ=            -89.8602
  YYZ=           -215.6603  XYZ=             74.9852
 Hexadecapole moment (field-independent basis, Debye-Ang**3):
 XXXX=        -167018.8075 YYYY=         -56450.9246 ZZZZ=          -3763.3237 XXXY=           -234.1751
 XXXZ=            159.1412 YYYX=          -1086.2233 YYYZ=          -1607.2699 ZZZX=            -44.5676
 ZZZY=           -343.0694 XXYY=         -38778.6364 XXZZ=         -31725.5389 YYZZ=         -11459.3117
 XXYZ=           -284.0419 YYXZ=          -1593.9453 ZZXY=           -249.9896
 N-N= 1.016789251999D+04 E-N=-2.802829960916D+04  KE= 3.289960931819D+03
 Leave Link  601 at Fri Nov  7 05:11:13 2025, MaxMem= 30870077440 cpu:             147.7 elap:               2.9
 (Enter /public/software/gauss/g16/l9999.exe)
 1\1\GINC-CU015\SP\RM062X\def2TZVPP\C69H50B1F2N5O2\BAIDING\07-Nov-2025\
 0\\#p M062X/DEF2TZVPP scrf=(solvent=water) em=GD3\\Energy calculation 
 for M100034884\\0,1\C,0,3.150345,0.701668,0.06906\C,0,2.639239,-0.7019
 4,-0.001151\C,0,3.463745,-1.842522,-0.056239\C,0,4.876993,-1.878179,-0
 .05431\C,0,6.096047,-1.913346,-0.050933\C,0,7.517959,-1.959472,-0.0447
 92\C,0,8.284329,-0.77501,-0.021927\C,0,9.671218,-0.821082,-0.020177\C,
 0,10.351572,-2.053997,-0.028118\N,0,11.76317,-2.101414,-0.019127\C,0,1
 2.455078,-3.125969,-0.729807\C,0,12.07382,-3.469905,-2.036453\C,0,12.7
 54517,-4.473973,-2.723912\C,0,13.83295,-5.13527,-2.130635\C,0,14.22020
 7,-4.786451,-0.834415\C,0,13.534261,-3.79591,-0.132513\C,0,12.514635,-
 1.128861,0.703513\C,0,12.135193,-0.753448,2.002085\C,0,12.875736,0.198
 942,2.701095\C,0,14.011716,0.776332,2.127958\C,0,14.396544,0.395803,0.
 839958\C,0,13.652136,-0.542745,0.126339\C,0,9.590782,-3.238887,-0.0453
 81\C,0,8.204085,-3.192387,-0.059972\C,0,2.620291,-2.988218,-0.11219\C,
 0,3.034542,-4.416626,-0.176947\N,0,1.338517,-2.58676,-0.092248\C,0,1.2
 97351,-1.182884,-0.024933\C,0,0.06407,-0.509848,0.015677\C,0,0.042025,
 0.982064,0.083417\C,0,0.063431,1.74629,-1.090243\C,0,0.035316,3.137076
 ,-1.026824\C,0,-0.008093,3.804808,0.210215\C,0,-0.036634,5.285082,0.27
 68\C,0,0.576688,5.97634,1.338072\C,0,0.545226,7.361642,1.393838\C,0,-0
 .101027,8.122755,0.394198\C,0,-0.074583,9.559832,0.552503\C,0,-0.59884
 4,10.576035,-0.195094\C,0,-1.350562,10.410141,-1.393619\N,0,-1.969598,
 10.303425,-2.377326\C,0,-0.373788,11.971052,0.271506\O,0,0.249008,12.2
 71548,1.278226\O,0,-0.937004,12.880498,-0.546408\C,0,-0.715826,7.42715
 9,-0.670811\C,0,-0.680787,6.042645,-0.723134\C,0,-0.024377,3.027868,1.
 382438\C,0,-0.002952,1.636878,1.321063\C,0,-1.149738,-1.218583,-0.0026
 31\C,0,-2.504555,-0.77578,0.02769\C,0,-3.055571,0.613172,0.086118\C,0,
 -3.296657,-1.939887,-0.010568\C,0,-4.708362,-2.014538,0.000392\C,0,-5.
 926111,-2.080789,0.00898\C,0,-7.346464,-2.161559,0.018181\C,0,-8.00302
 7,-3.410396,-0.001961\C,0,-9.388348,-3.489565,-0.000172\C,0,-10.176975
 ,-2.323449,0.034688\N,0,-11.587058,-2.404464,0.042761\C,0,-12.244547,-
 3.468076,0.728145\C,0,-13.317164,-4.142462,0.124049\C,0,-13.970002,-5.
 171348,0.801957\C,0,-13.555615,-5.5541,2.080081\C,0,-12.483552,-4.8882
 95,2.679835\C,0,-11.836029,-3.846488,2.016915\C,0,-12.371075,-1.426154
 ,-0.636104\C,0,-12.018453,-0.998266,-1.925972\C,0,-12.790541,-0.040719
 ,-2.582515\C,0,-13.93166,0.489807,-1.975295\C,0,-14.289592,0.05713,-0.
 696033\C,0,-13.513744,-0.886974,-0.02445\C,0,-9.526093,-1.07503,0.0616
 22\C,0,-8.1408,-0.995771,0.047064\C,0,-2.421442,-3.061457,-0.065536\C,
 0,-2.795065,-4.501484,-0.120241\N,0,-1.151457,-2.623438,-0.060835\B,0,
 0.106389,-3.528748,-0.135512\F,0,0.133621,-4.408609,0.952381\F,0,0.101
 699,-4.261653,-1.328936\H,0,2.839798,1.291834,-0.798533\H,0,2.785976,1
 .224343,0.95834\H,0,4.242476,0.69362,0.100899\H,0,7.780616,0.186235,-0
 .020772\H,0,10.235514,0.104689,-0.018415\H,0,11.247795,-2.94924,-2.509
 479\H,0,12.447927,-4.728473,-3.73425\H,0,14.364896,-5.911601,-2.671689
 \H,0,15.052846,-5.295876,-0.358282\H,0,13.830978,-3.539359,0.879077\H,
 0,11.264018,-1.209784,2.460248\H,0,12.569669,0.478331,3.705007\H,0,14.
 589745,1.512227,2.678182\H,0,15.273839,0.840339,0.379234\H,0,13.948287
 ,-0.823644,-0.878953\H,0,10.092163,-4.200177,-0.040869\H,0,7.637491,-4
 .117944,-0.067233\H,0,2.58572,-4.910059,-1.044217\H,0,4.120654,-4.4914
 22,-0.245193\H,0,2.697187,-4.957226,0.713334\H,0,0.106765,1.251192,-2.
 055153\H,0,0.072303,3.707375,-1.949064\H,0,1.101454,5.426342,2.111764\
 H,0,1.032349,7.876768,2.21626\H,0,0.461584,9.906704,1.432946\H,0,-0.75
 3653,13.76711,-0.185263\H,0,-1.229425,7.964328,-1.457557\H,0,-1.18185,
 5.536076,-1.540994\H,0,-0.080293,3.5119,2.351886\H,0,-0.027466,1.05616
 2,2.237697\H,0,-2.707939,1.225402,-0.751099\H,0,-4.147073,0.576789,0.0
 5293\H,0,-2.760697,1.13016,1.004447\H,0,-7.414853,-4.321842,-0.0344\H,
 0,-9.867143,-4.461808,-0.03217\H,0,-13.634729,-3.859276,-0.874029\H,0,
 -14.798026,-5.683656,0.320892\H,0,-14.061911,-6.359891,2.602321\H,0,-1
 2.156223,-5.169152,3.676602\H,0,-11.015038,-3.322809,2.495384\H,0,-11.
 143217,-1.418317,-2.410413\H,0,-12.504887,0.279491,-3.580235\H,0,-14.5
 3427,1.229879,-2.492554\H,0,-15.170564,0.464985,-0.209121\H,0,-13.7893
 89,-1.208424,0.974511\H,0,-10.11194,-0.16352,0.099406\H,0,-7.659968,-0
 .023233,0.073366\H,0,-2.375079,-4.975725,-1.012636\H,0,-2.397259,-5.03
 6899,0.74766\H,0,-3.880404,-4.60914,-0.137054\\Version=ES64L-G16RevA.0
 3\State=1-A\HF=-3308.2828215\RMSD=2.232e-09\Dipole=0.7642544,0.8247582
 ,1.297216\Quadrupole=57.8766198,-40.3475782,-17.5290416,14.2215703,-3.
 902157,18.4955969\PG=C01 [X(C69H50B1F2N5O2)]\\@


 THERE'S NOTHING SO GREAT AS THE GREAT OUTDOORS.

                                       -- ZIGGY
 Job cpu time:       1 days 13 hours 48 minutes 11.2 seconds.
 Elapsed time:       0 days  0 hours 36 minutes 15.5 seconds.
 File lengths (MBytes):  RWF=   6576 Int=      0 D2E=      0 Chk=    573 Scr=      1
 Normal termination of Gaussian 16 at Fri Nov  7 05:11:14 2025.
