 Entering Gaussian System, Link 0=g16
 Input=M100036982_sp.gjf
 Output=M100036982_sp.log
 Initial command:
 /public/software/gauss/g16/l1.exe "/public/home/baiding/1101_v2_sp/tmp_M100036982_sp_1568608/Gau-50328.inp" -scrdir="/public/home/baiding/1101_v2_sp/tmp_M100036982_sp_1568608/"
 Entering Link 1 = /public/software/gauss/g16/l1.exe PID=     50329.
  
 Copyright (c) 1988,1990,1992,1993,1995,1998,2003,2009,2016,
            Gaussian, Inc.  All Rights Reserved.
  
 This is part of the Gaussian(R) 16 program.  It is based on
 the Gaussian(R) 09 system (copyright 2009, Gaussian, Inc.),
 the Gaussian(R) 03 system (copyright 2003, Gaussian, Inc.),
 the Gaussian(R) 98 system (copyright 1998, Gaussian, Inc.),
 the Gaussian(R) 94 system (copyright 1995, Gaussian, Inc.),
 the Gaussian 92(TM) system (copyright 1992, Gaussian, Inc.),
 the Gaussian 90(TM) system (copyright 1990, Gaussian, Inc.),
 the Gaussian 88(TM) system (copyright 1988, Gaussian, Inc.),
 the Gaussian 86(TM) system (copyright 1986, Carnegie Mellon
 University), and the Gaussian 82(TM) system (copyright 1983,
 Carnegie Mellon University). Gaussian is a federally registered
 trademark of Gaussian, Inc.
  
 This software contains proprietary and confidential information,
 including trade secrets, belonging to Gaussian, Inc.
  
 This software is provided under written license and may be
 used, copied, transmitted, or stored only in accord with that
 written license.
  
 The following legend is applicable only to US Government
 contracts under FAR:
  
                    RESTRICTED RIGHTS LEGEND
  
 Use, reproduction and disclosure by the US Government is
 subject to restrictions as set forth in subparagraphs (a)
 and (c) of the Commercial Computer Software - Restricted
 Rights clause in FAR 52.227-19.
  
 Gaussian, Inc.
 340 Quinnipiac St., Bldg. 40, Wallingford CT 06492
  
  
 ---------------------------------------------------------------
 Warning -- This program may not be used in any manner that
 competes with the business of Gaussian, Inc. or will provide
 assistance to any competitor of Gaussian, Inc.  The licensee
 of this program is prohibited from giving any competitor of
 Gaussian, Inc. access to this program.  By using this program,
 the user acknowledges that Gaussian, Inc. is engaged in the
 business of creating and licensing software in the field of
 computational chemistry and represents and warrants to the
 licensee that it is not a competitor of Gaussian, Inc. and that
 it will not use this program in any manner prohibited above.
 ---------------------------------------------------------------
  

 Cite this work as:
 Gaussian 16, Revision A.03,
 M. J. Frisch, G. W. Trucks, H. B. Schlegel, G. E. Scuseria, 
 M. A. Robb, J. R. Cheeseman, G. Scalmani, V. Barone, 
 G. A. Petersson, H. Nakatsuji, X. Li, M. Caricato, A. V. Marenich, 
 J. Bloino, B. G. Janesko, R. Gomperts, B. Mennucci, H. P. Hratchian, 
 J. V. Ortiz, A. F. Izmaylov, J. L. Sonnenberg, D. Williams-Young, 
 F. Ding, F. Lipparini, F. Egidi, J. Goings, B. Peng, A. Petrone, 
 T. Henderson, D. Ranasinghe, V. G. Zakrzewski, J. Gao, N. Rega, 
 G. Zheng, W. Liang, M. Hada, M. Ehara, K. Toyota, R. Fukuda, 
 J. Hasegawa, M. Ishida, T. Nakajima, Y. Honda, O. Kitao, H. Nakai, 
 T. Vreven, K. Throssell, J. A. Montgomery, Jr., J. E. Peralta, 
 F. Ogliaro, M. J. Bearpark, J. J. Heyd, E. N. Brothers, K. N. Kudin, 
 V. N. Staroverov, T. A. Keith, R. Kobayashi, J. Normand, 
 K. Raghavachari, A. P. Rendell, J. C. Burant, S. S. Iyengar, 
 J. Tomasi, M. Cossi, J. M. Millam, M. Klene, C. Adamo, R. Cammi, 
 J. W. Ochterski, R. L. Martin, K. Morokuma, O. Farkas, 
 J. B. Foresman, and D. J. Fox, Gaussian, Inc., Wallingford CT, 2016.
 
 ******************************************
 Gaussian 16:  ES64L-G16RevA.03 25-Dec-2016
                 7-Nov-2025 
 ******************************************
 %nprocshared=64
 Will use up to   64 processors via shared memory.
 %mem=230GB
 %chk=M100036982_sp.chk
 ----------------------------------------------
 #p M062X/DEF2TZVPP scrf=(solvent=water) em=GD3
 ----------------------------------------------
 1/38=1,172=1/1;
 2/12=2,17=6,18=5,40=1/2;
 3/5=44,7=202,11=2,25=1,30=1,70=2201,72=1,74=-55,124=31/1,2,3;
 4//1;
 5/5=2,38=5,53=1/2;
 6/7=2,8=2,9=2,10=2,28=1/1;
 99/5=1,9=1/99;
 Leave Link    1 at Fri Nov  7 18:32:57 2025, MaxMem= 30870077440 cpu:              17.0 elap:               0.3
 (Enter /public/software/gauss/g16/l101.exe)
 ---------------------------------
 Energy calculation for M100036982
 ---------------------------------
 Symbolic Z-matrix:
 Charge =  0 Multiplicity = 1
 C                    -7.78323   3.65717   0.6128 
 C                    -6.74285   2.6041    0.40257 
 C                    -6.98653   1.22084   0.13439 
 C                    -8.19937   0.57379  -0.03625 
 C                    -8.26866  -0.78196  -0.3613 
 C                    -9.36675  -1.64486  -0.58002 
 C                    -8.84255  -2.90163  -0.88073 
 C                    -7.44287  -2.78046  -0.84015 
 N                    -7.09632  -1.51286  -0.5305 
 B                    -5.6508   -0.96437  -0.37268 
 F                    -5.00825  -1.69239   0.64138 
 F                    -4.94827  -1.11168  -1.56953 
 N                    -5.76112   0.54924   0.01398 
 C                    -4.77337   1.47674   0.18807 
 C                    -3.34044   1.30246   0.15374 
 C                    -2.6214    0.15489   0.19989 
 C                    -1.16343   0.05788   0.15549 
 C                    -0.30607   1.17103   0.02221 
 C                     1.0737    1.0119   -0.01773 
 C                     1.60263  -0.27428   0.06765 
 O                     3.00673  -0.43069  -0.06255 
 S                     3.87468  -0.68077   1.31042 
 O                     3.54057   0.31417   2.3279 
 O                     3.78134  -2.09334   1.68203 
 C                     5.51472  -0.42176   0.58411 
 C                     5.90124   0.64453  -0.24868 
 C                     7.17687   0.69987  -0.79089 
 C                     8.07602  -0.30622  -0.45883 
 C                     7.73544  -1.36625   0.3677 
 C                     6.43821  -1.42402   0.87622 
 N                     9.4367   -0.23922  -1.01606 
 O                     9.71426   0.71293  -1.74398 
 O                     10.2209  -1.14007  -0.72259 
 N                     5.01357   1.76367  -0.59652 
 O                     5.14026   2.25968  -1.71312 
 O                     4.22252   2.15434   0.25859 
 C                     0.79739  -1.40118   0.19546 
 C                    -0.58249  -1.22373   0.24156 
 C                    -5.37008   2.74898   0.41852 
 H                    -8.40192   3.4353    1.48947 
 H                    -7.31678   4.63326   0.76409 
 H                    -8.45777   3.72974  -0.24717 
 H                    -9.11806   1.1395    0.0756 
 H                    -10.40718  -1.3561   -0.51772 
 H                    -9.38871  -3.80692  -1.10579 
 H                    -6.69055  -3.5371   -1.01746 
 H                    -2.81517   2.25337   0.11787 
 H                    -3.13709  -0.7921    0.30456 
 H                    -0.71489   2.17266  -0.05332 
 H                     1.737     1.86262  -0.12453 
 H                     7.46161   1.51527  -1.44193 
 H                     8.45487  -2.13934   0.60323 
 H                     6.14466  -2.26577   1.49026 
 H                     1.23784  -2.39035   0.24427 
 H                    -1.22695  -2.09211   0.33722 
 H                    -4.81238   3.66003   0.59011 
 
 ITRead=  0  0  0  0  0  0  0  0  0  0  0  0  0  0  0  0  0  0  0  0
 ITRead=  0  0  0  0  0  0  0  0  0  0  0  0  0  0  0  0  0  0  0  0
 ITRead=  0  0  0  0  0  0  0  0  0  0  0  0  0  0  0  0
 MicOpt= -1 -1 -1 -1 -1 -1 -1 -1 -1 -1 -1 -1 -1 -1 -1 -1 -1 -1 -1 -1
 MicOpt= -1 -1 -1 -1 -1 -1 -1 -1 -1 -1 -1 -1 -1 -1 -1 -1 -1 -1 -1 -1
 MicOpt= -1 -1 -1 -1 -1 -1 -1 -1 -1 -1 -1 -1 -1 -1 -1 -1
 NAtoms=     56 NQM=       56 NQMF=       0 NMMI=      0 NMMIF=      0
                NMic=       0 NMicF=      0.
                    Isotopes and Nuclear Properties:
 (Nuclear quadrupole moments (NQMom) in fm**2, nuclear magnetic moments (NMagM)
  in nuclear magnetons)

  Atom         1           2           3           4           5           6           7           8           9          10
 IAtWgt=          12          12          12          12          12          12          12          12          14          11
 AtmWgt=  12.0000000  12.0000000  12.0000000  12.0000000  12.0000000  12.0000000  12.0000000  12.0000000  14.0030740  11.0093053
 NucSpn=           0           0           0           0           0           0           0           0           2           3
 AtZEff=  -0.0000000  -0.0000000  -0.0000000  -0.0000000  -0.0000000  -0.0000000  -0.0000000  -0.0000000  -0.0000000  -0.0000000
 NQMom=    0.0000000   0.0000000   0.0000000   0.0000000   0.0000000   0.0000000   0.0000000   0.0000000   2.0440000   4.0590000
 NMagM=    0.0000000   0.0000000   0.0000000   0.0000000   0.0000000   0.0000000   0.0000000   0.0000000   0.4037610   2.6886370
 AtZNuc=   6.0000000   6.0000000   6.0000000   6.0000000   6.0000000   6.0000000   6.0000000   6.0000000   7.0000000   5.0000000

  Atom        11          12          13          14          15          16          17          18          19          20
 IAtWgt=          19          19          14          12          12          12          12          12          12          12
 AtmWgt=  18.9984033  18.9984033  14.0030740  12.0000000  12.0000000  12.0000000  12.0000000  12.0000000  12.0000000  12.0000000
 NucSpn=           1           1           2           0           0           0           0           0           0           0
 AtZEff=  -0.0000000  -0.0000000  -0.0000000  -0.0000000  -0.0000000  -0.0000000  -0.0000000  -0.0000000  -0.0000000  -0.0000000
 NQMom=    0.0000000   0.0000000   2.0440000   0.0000000   0.0000000   0.0000000   0.0000000   0.0000000   0.0000000   0.0000000
 NMagM=    2.6288670   2.6288670   0.4037610   0.0000000   0.0000000   0.0000000   0.0000000   0.0000000   0.0000000   0.0000000
 AtZNuc=   9.0000000   9.0000000   7.0000000   6.0000000   6.0000000   6.0000000   6.0000000   6.0000000   6.0000000   6.0000000

  Atom        21          22          23          24          25          26          27          28          29          30
 IAtWgt=          16          32          16          16          12          12          12          12          12          12
 AtmWgt=  15.9949146  31.9720718  15.9949146  15.9949146  12.0000000  12.0000000  12.0000000  12.0000000  12.0000000  12.0000000
 NucSpn=           0           0           0           0           0           0           0           0           0           0
 AtZEff=  -0.0000000  -0.0000000  -0.0000000  -0.0000000  -0.0000000  -0.0000000  -0.0000000  -0.0000000  -0.0000000  -0.0000000
 NQMom=    0.0000000   0.0000000   0.0000000   0.0000000   0.0000000   0.0000000   0.0000000   0.0000000   0.0000000   0.0000000
 NMagM=    0.0000000   0.0000000   0.0000000   0.0000000   0.0000000   0.0000000   0.0000000   0.0000000   0.0000000   0.0000000
 AtZNuc=   8.0000000  16.0000000   8.0000000   8.0000000   6.0000000   6.0000000   6.0000000   6.0000000   6.0000000   6.0000000

  Atom        31          32          33          34          35          36          37          38          39          40
 IAtWgt=          14          16          16          14          16          16          12          12          12           1
 AtmWgt=  14.0030740  15.9949146  15.9949146  14.0030740  15.9949146  15.9949146  12.0000000  12.0000000  12.0000000   1.0078250
 NucSpn=           2           0           0           2           0           0           0           0           0           1
 AtZEff=  -0.0000000  -0.0000000  -0.0000000  -0.0000000  -0.0000000  -0.0000000  -0.0000000  -0.0000000  -0.0000000  -0.0000000
 NQMom=    2.0440000   0.0000000   0.0000000   2.0440000   0.0000000   0.0000000   0.0000000   0.0000000   0.0000000   0.0000000
 NMagM=    0.4037610   0.0000000   0.0000000   0.4037610   0.0000000   0.0000000   0.0000000   0.0000000   0.0000000   2.7928460
 AtZNuc=   7.0000000   8.0000000   8.0000000   7.0000000   8.0000000   8.0000000   6.0000000   6.0000000   6.0000000   1.0000000

  Atom        41          42          43          44          45          46          47          48          49          50
 IAtWgt=           1           1           1           1           1           1           1           1           1           1
 AtmWgt=   1.0078250   1.0078250   1.0078250   1.0078250   1.0078250   1.0078250   1.0078250   1.0078250   1.0078250   1.0078250
 NucSpn=           1           1           1           1           1           1           1           1           1           1
 AtZEff=  -0.0000000  -0.0000000  -0.0000000  -0.0000000  -0.0000000  -0.0000000  -0.0000000  -0.0000000  -0.0000000  -0.0000000
 NQMom=    0.0000000   0.0000000   0.0000000   0.0000000   0.0000000   0.0000000   0.0000000   0.0000000   0.0000000   0.0000000
 NMagM=    2.7928460   2.7928460   2.7928460   2.7928460   2.7928460   2.7928460   2.7928460   2.7928460   2.7928460   2.7928460
 AtZNuc=   1.0000000   1.0000000   1.0000000   1.0000000   1.0000000   1.0000000   1.0000000   1.0000000   1.0000000   1.0000000

  Atom        51          52          53          54          55          56
 IAtWgt=           1           1           1           1           1           1
 AtmWgt=   1.0078250   1.0078250   1.0078250   1.0078250   1.0078250   1.0078250
 NucSpn=           1           1           1           1           1           1
 AtZEff=  -0.0000000  -0.0000000  -0.0000000  -0.0000000  -0.0000000  -0.0000000
 NQMom=    0.0000000   0.0000000   0.0000000   0.0000000   0.0000000   0.0000000
 NMagM=    2.7928460   2.7928460   2.7928460   2.7928460   2.7928460   2.7928460
 AtZNuc=   1.0000000   1.0000000   1.0000000   1.0000000   1.0000000   1.0000000
 Leave Link  101 at Fri Nov  7 18:32:57 2025, MaxMem= 30870077440 cpu:               3.8 elap:               0.1
 (Enter /public/software/gauss/g16/l202.exe)
 Stoichiometry    C24H17BF2N4O7S
 Framework group  C1[X(C24H17BF2N4O7S)]
 Deg. of freedom   162
 Full point group                 C1      NOp   1
 Largest Abelian subgroup         C1      NOp   1
 Largest concise Abelian subgroup C1      NOp   1
                         Standard orientation:                         
 ---------------------------------------------------------------------
 Center     Atomic      Atomic             Coordinates (Angstroms)
 Number     Number       Type             X           Y           Z
 ---------------------------------------------------------------------
      1          6           0       -7.783225    3.657172    0.612804
      2          6           0       -6.742845    2.604098    0.402574
      3          6           0       -6.986526    1.220838    0.134386
      4          6           0       -8.199375    0.573793   -0.036248
      5          6           0       -8.268657   -0.781962   -0.361297
      6          6           0       -9.366749   -1.644857   -0.580016
      7          6           0       -8.842551   -2.901630   -0.880725
      8          6           0       -7.442865   -2.780464   -0.840151
      9          7           0       -7.096324   -1.512863   -0.530499
     10          5           0       -5.650800   -0.964373   -0.372683
     11          9           0       -5.008251   -1.692390    0.641376
     12          9           0       -4.948272   -1.111683   -1.569533
     13          7           0       -5.761122    0.549236    0.013978
     14          6           0       -4.773365    1.476740    0.188065
     15          6           0       -3.340443    1.302455    0.153736
     16          6           0       -2.621397    0.154893    0.199886
     17          6           0       -1.163430    0.057880    0.155488
     18          6           0       -0.306069    1.171028    0.022208
     19          6           0        1.073695    1.011904   -0.017725
     20          6           0        1.602634   -0.274279    0.067649
     21          8           0        3.006729   -0.430691   -0.062553
     22         16           0        3.874678   -0.680773    1.310420
     23          8           0        3.540572    0.314169    2.327896
     24          8           0        3.781339   -2.093338    1.682030
     25          6           0        5.514720   -0.421763    0.584113
     26          6           0        5.901236    0.644528   -0.248684
     27          6           0        7.176874    0.699871   -0.790893
     28          6           0        8.076023   -0.306224   -0.458830
     29          6           0        7.735439   -1.366254    0.367704
     30          6           0        6.438210   -1.424019    0.876216
     31          7           0        9.436702   -0.239218   -1.016056
     32          8           0        9.714261    0.712930   -1.743976
     33          8           0       10.220897   -1.140065   -0.722585
     34          7           0        5.013568    1.763673   -0.596516
     35          8           0        5.140263    2.259677   -1.713121
     36          8           0        4.222518    2.154339    0.258587
     37          6           0        0.797392   -1.401177    0.195456
     38          6           0       -0.582492   -1.223725    0.241555
     39          6           0       -5.370084    2.748983    0.418518
     40          1           0       -8.401915    3.435298    1.489471
     41          1           0       -7.316777    4.633261    0.764094
     42          1           0       -8.457775    3.729739   -0.247166
     43          1           0       -9.118057    1.139504    0.075602
     44          1           0      -10.407176   -1.356102   -0.517715
     45          1           0       -9.388710   -3.806917   -1.105787
     46          1           0       -6.690546   -3.537098   -1.017462
     47          1           0       -2.815168    2.253365    0.117868
     48          1           0       -3.137086   -0.792101    0.304560
     49          1           0       -0.714888    2.172657   -0.053316
     50          1           0        1.736996    1.862618   -0.124533
     51          1           0        7.461613    1.515272   -1.441925
     52          1           0        8.454870   -2.139343    0.603233
     53          1           0        6.144664   -2.265773    1.490255
     54          1           0        1.237841   -2.390346    0.244273
     55          1           0       -1.226945   -2.092107    0.337223
     56          1           0       -4.812384    3.660029    0.590113
 ---------------------------------------------------------------------
 Rotational constants (GHZ):           0.2839526           0.0244930           0.0234754
 Leave Link  202 at Fri Nov  7 18:32:57 2025, MaxMem= 30870077440 cpu:               2.1 elap:               0.0
 (Enter /public/software/gauss/g16/l301.exe)
 Standard basis: def2TZVPP (5D, 7F)
 Ernie: Thresh=  0.10000D-02 Tol=  0.10000D-05 Strict=F.
 There are  1671 symmetry adapted cartesian basis functions of A   symmetry.
 There are  1458 symmetry adapted basis functions of A   symmetry.
  1458 basis functions,  2296 primitive gaussians,  1671 cartesian basis functions
   142 alpha electrons      142 beta electrons
       nuclear repulsion energy      4193.2667976789 Hartrees.
 IExCor= 4336 DFT=T Ex+Corr=M062X ExCW=0 ScaHFX=  0.540000
 ScaDFX=  1.000000  1.000000  1.000000  1.000000 ScalE2=  1.000000  1.000000
 IRadAn=      5 IRanWt=     -1 IRanGd=            0 ICorTp=0 IEmpDi=131
 NAtoms=   56 NActive=   56 NUniq=   56 SFac= 1.00D+00 NAtFMM=   60 NAOKFM=F Big=F
 Integral buffers will be    131072 words long.
 Raffenetti 2 integral format.
 Two-electron integral symmetry is turned on.
 R6Disp:  Grimme-D3 Dispersion energy=       -0.0039423869 Hartrees.
 Nuclear repulsion after empirical dispersion term =     4193.2628552920 Hartrees.
 ------------------------------------------------------------------------------
 Polarizable Continuum Model (PCM)
 =================================
 Model                : PCM.
 Atomic radii         : UFF (Universal Force Field).
 Polarization charges : Total charges.
 Charge compensation  : None.
 Solution method      : On-the-fly selection.
 Cavity type          : Scaled VdW (van der Waals Surface) (Alpha=1.100).
 Cavity algorithm     : GePol (No added spheres)
                        Default sphere list used, NSphG=   56.
                        Lebedev-Laikov grids with approx.  5.0 points / Ang**2.
                        Smoothing algorithm: York/Karplus (Gamma=1.0000).
                        Polarization charges: spherical gaussians, with
                                              point-specific exponents (IZeta= 3).
                        Self-potential: point-specific (ISelfS= 7).
                        Self-field    : sphere-specific E.n sum rule (ISelfD= 2).
 Solvent              : Water, Eps=  78.355300 Eps(inf)=   1.777849
 ------------------------------------------------------------------------------
 GePol: Number of generator spheres                  =      56
 GePol: Total number of spheres                      =      56
 GePol: Number of exposed spheres                    =      56 (100.00%)
 GePol: Number of points                             =    4510
 GePol: Average weight of points                     =       0.13
 GePol: Minimum weight of points                     =   0.12D-11
 GePol: Maximum weight of points                     =    0.20577
 GePol: Number of points with low weight             =     285
 GePol: Fraction of low-weight points (<1% of avg)   =       6.32%
 GePol: Cavity surface area                          =    572.314 Ang**2
 GePol: Cavity volume                                =    649.986 Ang**3
 Leave Link  301 at Fri Nov  7 18:32:57 2025, MaxMem= 30870077440 cpu:               4.0 elap:               0.1
 (Enter /public/software/gauss/g16/l302.exe)
 NPDir=0 NMtPBC=     1 NCelOv=     1 NCel=       1 NClECP=     1 NCelD=      1
         NCelK=      1 NCelE2=     1 NClLst=     1 CellRange=     0.0.
 One-electron integrals computed using PRISM.
 One-electron integral symmetry used in STVInt
   1 Symmetry operations used in ECPInt.
 ECPInt:  NShTT=  142845 NPrTT=  427348 LenC2=   85978 LenP2D=  174102.
 LDataN:  DoStor=T MaxTD1= 6 Len=  172
 NBasis=  1458 RedAO= T EigKep=  6.77D-06  NBF=  1458
 NBsUse=  1458 1.00D-06 EigRej= -1.00D+00 NBFU=  1458
 Precomputing XC quadrature grid using
 IXCGrd= 4 IRadAn=           5 IRanWt=          -1 IRanGd=           0 AccXCQ= 0.00D+00.
 Generated NRdTot=       0 NPtTot=           0 NUsed=           0 NTot=          32
 NSgBfM=  1450  1450  1450  1450  1450 MxSgAt=    56 MxSgA2=    56.
 Leave Link  302 at Fri Nov  7 18:33:02 2025, MaxMem= 30870077440 cpu:             322.0 elap:               5.1
 (Enter /public/software/gauss/g16/l303.exe)
 DipDrv:  MaxL=1.
 Leave Link  303 at Fri Nov  7 18:33:03 2025, MaxMem= 30870077440 cpu:              17.7 elap:               0.3
 (Enter /public/software/gauss/g16/l401.exe)
 ExpMin= 6.06D-02 ExpMax= 6.07D+04 ExpMxC= 2.07D+03 IAcc=3 IRadAn=         5 AccDes= 0.00D+00
 Harris functional with IExCor= 1009 and IRadAn=       5 diagonalized for initial guess.
 HarFok:  IExCor= 1009 AccDes= 0.00D+00 IRadAn=         5 IDoV= 1 UseB2=F ITyADJ=14
 ICtDFT=  3500011 ScaDFX=  1.000000  1.000000  1.000000  1.000000
 FoFCou: FMM=F IPFlag=           0 FMFlag=      100000 FMFlg1=           0
         NFxFlg=           0 DoJE=T BraDBF=F KetDBF=T FulRan=T
         wScrn=  0.000000 ICntrl=       500 IOpCl=  0 I1Cent=   200000004 NGrid=           0
         NMat0=    1 NMatS0=      1 NMatT0=    0 NMatD0=    1 NMtDS0=    0 NMtDT0=    0
 Petite list used in FoFCou.
 Harris En= -2291.97883115760    
 JPrj=0 DoOrth=F DoCkMO=F.
 Leave Link  401 at Fri Nov  7 18:33:09 2025, MaxMem= 30870077440 cpu:             385.9 elap:               6.1
 (Enter /public/software/gauss/g16/l502.exe)
 Integral symmetry usage will be decided dynamically.
 Closed shell SCF:
 Using DIIS extrapolation, IDIIS=  1040.
 NGot= 30870077440 LenX= 30864372088 LenY= 30861578176
 Requested convergence on RMS density matrix=1.00D-08 within 128 cycles.
 Requested convergence on MAX density matrix=1.00D-06.
 Requested convergence on             energy=1.00D-06.
 No special actions if energy rises.
 Fock matrices will be formed incrementally for  20 cycles.

 Cycle   1  Pass 1  IDiag  1:
 FoFJK:  IHMeth= 1 ICntrl=       0 DoSepK=F KAlg= 0 I1Cent=           0 FoldK=F
 IRaf= 520000000 NMat=       1 IRICut=       1 DoRegI=T DoRafI=F ISym2E= 0 IDoP0=0 IntGTp=1.
 FoFCou: FMM=F IPFlag=           0 FMFlag=      100000 FMFlg1=           0
         NFxFlg=           0 DoJE=F BraDBF=F KetDBF=F FulRan=T
         wScrn=  0.000000 ICntrl=         0 IOpCl=  0 I1Cent=           0 NGrid=           0
         NMat0=    1 NMatS0=      1 NMatT0=    0 NMatD0=    1 NMtDS0=    0 NMtDT0=    0
 Symmetry not used in FoFCou.
 Inv3:  Mode=1 IEnd=    61020300.
 Iteration    1 A*A^-1 deviation from unit magnitude is 1.29D-14 for    209.
 Iteration    1 A*A^-1 deviation from orthogonality  is 4.88D-15 for   4487   1294.
 Iteration    1 A^-1*A deviation from unit magnitude is 1.29D-14 for    414.
 Iteration    1 A^-1*A deviation from orthogonality  is 4.14D-15 for   3595    199.
 E= -2291.99824474095    
 DIIS: error= 2.87D-02 at cycle   1 NSaved=   1.
 NSaved= 1 IEnMin= 1 EnMin= -2291.99824474095     IErMin= 1 ErrMin= 2.87D-02
 ErrMax= 2.87D-02  0.00D+00 EMaxC= 1.00D-01 BMatC= 1.61D+00 BMatP= 1.61D+00
 IDIUse=3 WtCom= 7.13D-01 WtEn= 2.87D-01
 Coeff-Com:  0.100D+01
 Coeff-En:   0.100D+01
 Coeff:      0.100D+01
 Gap=     0.152 Goal=   None    Shift=    0.000
 GapD=    0.152 DampG=1.000 DampE=0.500 DampFc=0.5000 IDamp=-1.
 Damping current iteration by 5.00D-01
 RMSDP=1.86D-03 MaxDP=3.26D-01              OVMax= 2.59D-01

 Cycle   2  Pass 1  IDiag  1:
 RMSU=  9.28D-04    CP:  1.00D+00
 E= -2292.43199479719     Delta-E=       -0.433750056237 Rises=F Damp=T
 DIIS: error= 5.54D-03 at cycle   2 NSaved=   2.
 NSaved= 2 IEnMin= 2 EnMin= -2292.43199479719     IErMin= 2 ErrMin= 5.54D-03
 ErrMax= 5.54D-03  0.00D+00 EMaxC= 1.00D-01 BMatC= 1.72D-01 BMatP= 1.61D+00
 IDIUse=3 WtCom= 9.45D-01 WtEn= 5.54D-02
 Coeff-Com:  0.709D-01 0.929D+00
 Coeff-En:   0.166D+00 0.834D+00
 Coeff:      0.762D-01 0.924D+00
 Gap=     0.157 Goal=   None    Shift=    0.000
 RMSDP=6.74D-04 MaxDP=1.09D-01 DE=-4.34D-01 OVMax= 1.76D-01

 Cycle   3  Pass 1  IDiag  1:
 RMSU=  6.60D-04    CP:  9.81D-01  8.98D-01
 E= -2293.01291840124     Delta-E=       -0.580923604053 Rises=F Damp=F
 DIIS: error= 4.85D-03 at cycle   3 NSaved=   3.
 NSaved= 3 IEnMin= 3 EnMin= -2293.01291840124     IErMin= 3 ErrMin= 4.85D-03
 ErrMax= 4.85D-03  0.00D+00 EMaxC= 1.00D-01 BMatC= 7.89D-02 BMatP= 1.72D-01
 IDIUse=3 WtCom= 9.51D-01 WtEn= 4.85D-02
 Coeff-Com: -0.627D-01 0.392D+00 0.670D+00
 Coeff-En:   0.000D+00 0.000D+00 0.100D+01
 Coeff:     -0.597D-01 0.373D+00 0.686D+00
 Gap=     0.150 Goal=   None    Shift=    0.000
 RMSDP=3.12D-04 MaxDP=4.62D-02 DE=-5.81D-01 OVMax= 4.44D-02

 Cycle   4  Pass 1  IDiag  1:
 RMSU=  2.29D-04    CP:  9.86D-01  1.08D+00  8.02D-01
 E= -2293.06405710116     Delta-E=       -0.051138699923 Rises=F Damp=F
 DIIS: error= 1.86D-03 at cycle   4 NSaved=   4.
 NSaved= 4 IEnMin= 4 EnMin= -2293.06405710116     IErMin= 4 ErrMin= 1.86D-03
 ErrMax= 1.86D-03  0.00D+00 EMaxC= 1.00D-01 BMatC= 1.23D-02 BMatP= 7.89D-02
 IDIUse=3 WtCom= 9.81D-01 WtEn= 1.86D-02
 Coeff-Com: -0.323D-01 0.985D-01 0.340D+00 0.594D+00
 Coeff-En:   0.000D+00 0.000D+00 0.852D-01 0.915D+00
 Coeff:     -0.317D-01 0.967D-01 0.336D+00 0.600D+00
 Gap=     0.150 Goal=   None    Shift=    0.000
 RMSDP=1.07D-04 MaxDP=1.65D-02 DE=-5.11D-02 OVMax= 1.91D-02

 Cycle   5  Pass 1  IDiag  1:
 RMSU=  5.97D-05    CP:  9.84D-01  1.02D+00  8.77D-01  7.61D-01
 E= -2293.07278489956     Delta-E=       -0.008727798396 Rises=F Damp=F
 DIIS: error= 1.10D-03 at cycle   5 NSaved=   5.
 NSaved= 5 IEnMin= 5 EnMin= -2293.07278489956     IErMin= 5 ErrMin= 1.10D-03
 ErrMax= 1.10D-03  0.00D+00 EMaxC= 1.00D-01 BMatC= 1.21D-03 BMatP= 1.23D-02
 IDIUse=3 WtCom= 9.89D-01 WtEn= 1.10D-02
 Coeff-Com: -0.122D-01 0.238D-01 0.130D+00 0.322D+00 0.537D+00
 Coeff-En:   0.000D+00 0.000D+00 0.000D+00 0.000D+00 0.100D+01
 Coeff:     -0.120D-01 0.235D-01 0.129D+00 0.318D+00 0.542D+00
 Gap=     0.149 Goal=   None    Shift=    0.000
 RMSDP=2.96D-05 MaxDP=3.90D-03 DE=-8.73D-03 OVMax= 6.66D-03

 Cycle   6  Pass 1  IDiag  1:
 RMSU=  2.12D-05    CP:  9.84D-01  1.03D+00  8.66D-01  7.97D-01  7.53D-01
 E= -2293.07362669938     Delta-E=       -0.000841799823 Rises=F Damp=F
 DIIS: error= 4.53D-04 at cycle   6 NSaved=   6.
 NSaved= 6 IEnMin= 6 EnMin= -2293.07362669938     IErMin= 6 ErrMin= 4.53D-04
 ErrMax= 4.53D-04  0.00D+00 EMaxC= 1.00D-01 BMatC= 1.11D-04 BMatP= 1.21D-03
 IDIUse=3 WtCom= 9.95D-01 WtEn= 4.53D-03
 Coeff-Com: -0.320D-02 0.352D-02 0.338D-01 0.105D+00 0.283D+00 0.578D+00
 Coeff-En:   0.000D+00 0.000D+00 0.000D+00 0.000D+00 0.000D+00 0.100D+01
 Coeff:     -0.319D-02 0.350D-02 0.337D-01 0.105D+00 0.281D+00 0.580D+00
 Gap=     0.149 Goal=   None    Shift=    0.000
 RMSDP=1.02D-05 MaxDP=1.02D-03 DE=-8.42D-04 OVMax= 2.92D-03

 Cycle   7  Pass 1  IDiag  1:
 RMSU=  8.82D-06    CP:  9.84D-01  1.03D+00  8.68D-01  7.91D-01  7.93D-01
                    CP:  8.13D-01
 E= -2293.07370612795     Delta-E=       -0.000079428571 Rises=F Damp=F
 DIIS: error= 1.47D-04 at cycle   7 NSaved=   7.
 NSaved= 7 IEnMin= 7 EnMin= -2293.07370612795     IErMin= 7 ErrMin= 1.47D-04
 ErrMax= 1.47D-04  0.00D+00 EMaxC= 1.00D-01 BMatC= 1.42D-05 BMatP= 1.11D-04
 IDIUse=3 WtCom= 9.99D-01 WtEn= 1.47D-03
 Coeff-Com:  0.297D-03-0.195D-02-0.414D-02 0.112D-02 0.546D-01 0.293D+00
 Coeff-Com:  0.657D+00
 Coeff-En:   0.000D+00 0.000D+00 0.000D+00 0.000D+00 0.000D+00 0.000D+00
 Coeff-En:   0.100D+01
 Coeff:      0.297D-03-0.195D-02-0.414D-02 0.112D-02 0.545D-01 0.293D+00
 Coeff:      0.657D+00
 Gap=     0.150 Goal=   None    Shift=    0.000
 RMSDP=4.06D-06 MaxDP=3.89D-04 DE=-7.94D-05 OVMax= 9.29D-04

 Cycle   8  Pass 1  IDiag  1:
 RMSU=  3.08D-06    CP:  9.84D-01  1.03D+00  8.69D-01  7.94D-01  8.00D-01
                    CP:  9.29D-01  9.41D-01
 E= -2293.07371797995     Delta-E=       -0.000011852002 Rises=F Damp=F
 DIIS: error= 4.24D-05 at cycle   8 NSaved=   8.
 NSaved= 8 IEnMin= 8 EnMin= -2293.07371797995     IErMin= 8 ErrMin= 4.24D-05
 ErrMax= 4.24D-05  0.00D+00 EMaxC= 1.00D-01 BMatC= 2.01D-06 BMatP= 1.42D-05
 IDIUse=1 WtCom= 1.00D+00 WtEn= 0.00D+00
 Coeff-Com:  0.672D-03-0.165D-02-0.779D-02-0.164D-01-0.189D-01 0.558D-01
 Coeff-Com:  0.320D+00 0.668D+00
 Coeff:      0.672D-03-0.165D-02-0.779D-02-0.164D-01-0.189D-01 0.558D-01
 Coeff:      0.320D+00 0.668D+00
 Gap=     0.150 Goal=   None    Shift=    0.000
 RMSDP=1.74D-06 MaxDP=1.75D-04 DE=-1.19D-05 OVMax= 6.45D-04

 Cycle   9  Pass 1  IDiag  1:
 RMSU=  1.13D-06    CP:  9.84D-01  1.03D+00  8.68D-01  7.96D-01  8.10D-01
                    CP:  9.47D-01  1.03D+00  1.00D+00
 E= -2293.07371998463     Delta-E=       -0.000002004678 Rises=F Damp=F
 DIIS: error= 1.73D-05 at cycle   9 NSaved=   9.
 NSaved= 9 IEnMin= 9 EnMin= -2293.07371998463     IErMin= 9 ErrMin= 1.73D-05
 ErrMax= 1.73D-05  0.00D+00 EMaxC= 1.00D-01 BMatC= 2.99D-07 BMatP= 2.01D-06
 IDIUse=1 WtCom= 1.00D+00 WtEn= 0.00D+00
 Coeff-Com:  0.260D-03-0.456D-03-0.292D-02-0.757D-02-0.167D-01-0.130D-01
 Coeff-Com:  0.569D-01 0.321D+00 0.662D+00
 Coeff:      0.260D-03-0.456D-03-0.292D-02-0.757D-02-0.167D-01-0.130D-01
 Coeff:      0.569D-01 0.321D+00 0.662D+00
 Gap=     0.150 Goal=   None    Shift=    0.000
 RMSDP=6.26D-07 MaxDP=6.10D-05 DE=-2.00D-06 OVMax= 2.73D-04

 Cycle  10  Pass 1  IDiag  1:
 RMSU=  4.23D-07    CP:  9.84D-01  1.03D+00  8.68D-01  7.96D-01  8.09D-01
                    CP:  9.59D-01  1.06D+00  1.09D+00  1.02D+00
 E= -2293.07372031896     Delta-E=       -0.000000334323 Rises=F Damp=F
 DIIS: error= 5.05D-06 at cycle  10 NSaved=  10.
 NSaved=10 IEnMin=10 EnMin= -2293.07372031896     IErMin=10 ErrMin= 5.05D-06
 ErrMax= 5.05D-06  0.00D+00 EMaxC= 1.00D-01 BMatC= 2.31D-08 BMatP= 2.99D-07
 IDIUse=1 WtCom= 1.00D+00 WtEn= 0.00D+00
 Coeff-Com:  0.963D-05 0.363D-04 0.162D-04-0.471D-03-0.364D-02-0.106D-01
 Coeff-Com: -0.219D-01 0.186D-01 0.204D+00 0.814D+00
 Coeff:      0.963D-05 0.363D-04 0.162D-04-0.471D-03-0.364D-02-0.106D-01
 Coeff:     -0.219D-01 0.186D-01 0.204D+00 0.814D+00
 Gap=     0.150 Goal=   None    Shift=    0.000
 RMSDP=2.80D-07 MaxDP=2.86D-05 DE=-3.34D-07 OVMax= 1.28D-04

 Cycle  11  Pass 1  IDiag  1:
 RMSU=  1.58D-07    CP:  9.84D-01  1.03D+00  8.68D-01  7.96D-01  8.09D-01
                    CP:  9.62D-01  1.07D+00  1.14D+00  1.10D+00  1.15D+00
 E= -2293.07372036212     Delta-E=       -0.000000043159 Rises=F Damp=F
 DIIS: error= 1.41D-06 at cycle  11 NSaved=  11.
 NSaved=11 IEnMin=11 EnMin= -2293.07372036212     IErMin=11 ErrMin= 1.41D-06
 ErrMax= 1.41D-06  0.00D+00 EMaxC= 1.00D-01 BMatC= 5.49D-09 BMatP= 2.31D-08
 IDIUse=1 WtCom= 1.00D+00 WtEn= 0.00D+00
 Coeff-Com: -0.319D-04 0.770D-04 0.436D-03 0.961D-03 0.863D-03-0.221D-02
 Coeff-Com: -0.175D-01-0.400D-01-0.211D-01 0.356D+00 0.723D+00
 Coeff:     -0.319D-04 0.770D-04 0.436D-03 0.961D-03 0.863D-03-0.221D-02
 Coeff:     -0.175D-01-0.400D-01-0.211D-01 0.356D+00 0.723D+00
 Gap=     0.150 Goal=   None    Shift=    0.000
 RMSDP=1.09D-07 MaxDP=1.25D-05 DE=-4.32D-08 OVMax= 5.64D-05

 Cycle  12  Pass 1  IDiag  1:
 RMSU=  7.25D-08    CP:  9.84D-01  1.03D+00  8.68D-01  7.96D-01  8.08D-01
                    CP:  9.63D-01  1.07D+00  1.15D+00  1.14D+00  1.26D+00
                    CP:  1.13D+00
 E= -2293.07372037000     Delta-E=       -0.000000007887 Rises=F Damp=F
 DIIS: error= 4.24D-07 at cycle  12 NSaved=  12.
 NSaved=12 IEnMin=12 EnMin= -2293.07372037000     IErMin=12 ErrMin= 4.24D-07
 ErrMax= 4.24D-07  0.00D+00 EMaxC= 1.00D-01 BMatC= 7.55D-10 BMatP= 5.49D-09
 IDIUse=1 WtCom= 1.00D+00 WtEn= 0.00D+00
 Coeff-Com: -0.133D-04 0.242D-04 0.165D-03 0.441D-03 0.786D-03 0.550D-03
 Coeff-Com: -0.403D-02-0.180D-01-0.410D-01 0.299D-01 0.288D+00 0.743D+00
 Coeff:     -0.133D-04 0.242D-04 0.165D-03 0.441D-03 0.786D-03 0.550D-03
 Coeff:     -0.403D-02-0.180D-01-0.410D-01 0.299D-01 0.288D+00 0.743D+00
 Gap=     0.150 Goal=   None    Shift=    0.000
 RMSDP=4.72D-08 MaxDP=4.66D-06 DE=-7.89D-09 OVMax= 2.45D-05

 Cycle  13  Pass 1  IDiag  1:
 RMSU=  3.11D-08    CP:  9.84D-01  1.03D+00  8.68D-01  7.96D-01  8.08D-01
                    CP:  9.64D-01  1.07D+00  1.15D+00  1.15D+00  1.32D+00
                    CP:  1.25D+00  1.12D+00
 E= -2293.07372037142     Delta-E=       -0.000000001417 Rises=F Damp=F
 DIIS: error= 3.38D-07 at cycle  13 NSaved=  13.
 NSaved=13 IEnMin=13 EnMin= -2293.07372037142     IErMin=13 ErrMin= 3.38D-07
 ErrMax= 3.38D-07  0.00D+00 EMaxC= 1.00D-01 BMatC= 1.60D-10 BMatP= 7.55D-10
 IDIUse=1 WtCom= 1.00D+00 WtEn= 0.00D+00
 Coeff-Com: -0.653D-06-0.155D-05 0.204D-05 0.409D-04 0.209D-03 0.632D-03
 Coeff-Com:  0.106D-02-0.116D-02-0.153D-01-0.417D-01-0.373D-02 0.319D+00
 Coeff-Com:  0.741D+00
 Coeff:     -0.653D-06-0.155D-05 0.204D-05 0.409D-04 0.209D-03 0.632D-03
 Coeff:      0.106D-02-0.116D-02-0.153D-01-0.417D-01-0.373D-02 0.319D+00
 Coeff:      0.741D+00
 Gap=     0.150 Goal=   None    Shift=    0.000
 RMSDP=2.30D-08 MaxDP=1.80D-06 DE=-1.42D-09 OVMax= 1.39D-05

 Cycle  14  Pass 1  IDiag  1:
 RMSU=  1.49D-08    CP:  9.84D-01  1.03D+00  8.68D-01  7.96D-01  8.08D-01
                    CP:  9.64D-01  1.07D+00  1.15D+00  1.15D+00  1.34D+00
                    CP:  1.31D+00  1.28D+00  1.06D+00
 E= -2293.07372037218     Delta-E=       -0.000000000759 Rises=F Damp=F
 DIIS: error= 2.28D-07 at cycle  14 NSaved=  14.
 NSaved=14 IEnMin=14 EnMin= -2293.07372037218     IErMin=14 ErrMin= 2.28D-07
 ErrMax= 2.28D-07  0.00D+00 EMaxC= 1.00D-01 BMatC= 5.60D-11 BMatP= 1.60D-10
 IDIUse=1 WtCom= 1.00D+00 WtEn= 0.00D+00
 Coeff-Com:  0.251D-05-0.602D-05-0.354D-04-0.743D-04-0.569D-04 0.259D-03
 Coeff-Com:  0.154D-02 0.352D-02 0.738D-03-0.285D-01-0.724D-01 0.560D-02
 Coeff-Com:  0.426D+00 0.664D+00
 Coeff:      0.251D-05-0.602D-05-0.354D-04-0.743D-04-0.569D-04 0.259D-03
 Coeff:      0.154D-02 0.352D-02 0.738D-03-0.285D-01-0.724D-01 0.560D-02
 Coeff:      0.426D+00 0.664D+00
 Gap=     0.150 Goal=   None    Shift=    0.000
 RMSDP=1.22D-08 MaxDP=1.23D-06 DE=-7.59D-10 OVMax= 7.52D-06

 Cycle  15  Pass 1  IDiag  1:
 RMSU=  6.91D-09    CP:  9.84D-01  1.03D+00  8.68D-01  7.96D-01  8.08D-01
                    CP:  9.64D-01  1.07D+00  1.15D+00  1.16D+00  1.34D+00
                    CP:  1.33D+00  1.34D+00  1.27D+00  1.06D+00
 E= -2293.07372037240     Delta-E=       -0.000000000218 Rises=F Damp=F
 DIIS: error= 8.41D-08 at cycle  15 NSaved=  15.
 NSaved=15 IEnMin=15 EnMin= -2293.07372037240     IErMin=15 ErrMin= 8.41D-08
 ErrMax= 8.41D-08  0.00D+00 EMaxC= 1.00D-01 BMatC= 9.39D-12 BMatP= 5.60D-11
 IDIUse=1 WtCom= 1.00D+00 WtEn= 0.00D+00
 Coeff-Com:  0.124D-05-0.222D-05-0.161D-04-0.435D-04-0.875D-04-0.674D-04
 Coeff-Com:  0.390D-03 0.187D-02 0.450D-02-0.457D-03-0.340D-01-0.869D-01
 Coeff-Com:  0.278D-03 0.304D+00 0.811D+00
 Coeff:      0.124D-05-0.222D-05-0.161D-04-0.435D-04-0.875D-04-0.674D-04
 Coeff:      0.390D-03 0.187D-02 0.450D-02-0.457D-03-0.340D-01-0.869D-01
 Coeff:      0.278D-03 0.304D+00 0.811D+00
 Gap=     0.150 Goal=   None    Shift=    0.000
 RMSDP=7.05D-09 MaxDP=5.38D-07 DE=-2.18D-10 OVMax= 4.92D-06

 Error on total polarization charges =  0.02014
 SCF Done:  E(RM062X) =  -2293.07372037     A.U. after   15 cycles
            NFock= 15  Conv=0.71D-08     -V/T= 2.0046
 KE= 2.282648766177D+03 PE=-1.376270811222D+04 EE= 4.993722770379D+03
 Leave Link  502 at Fri Nov  7 18:44:54 2025, MaxMem= 30870077440 cpu:           44409.5 elap:             705.4
 (Enter /public/software/gauss/g16/l601.exe)
 Copying SCF densities to generalized density rwf, IOpCl= 0 IROHF=0.

 **********************************************************************

            Population analysis using the SCF density.

 **********************************************************************

 Orbital symmetries:
       Occupied  (A) (A) (A) (A) (A) (A) (A) (A) (A) (A) (A) (A)
                 (A) (A) (A) (A) (A) (A) (A) (A) (A) (A) (A) (A)
                 (A) (A) (A) (A) (A) (A) (A) (A) (A) (A) (A) (A)
                 (A) (A) (A) (A) (A) (A) (A) (A) (A) (A) (A) (A)
                 (A) (A) (A) (A) (A) (A) (A) (A) (A) (A) (A) (A)
                 (A) (A) (A) (A) (A) (A) (A) (A) (A) (A) (A) (A)
                 (A) (A) (A) (A) (A) (A) (A) (A) (A) (A) (A) (A)
                 (A) (A) (A) (A) (A) (A) (A) (A) (A) (A) (A) (A)
                 (A) (A) (A) (A) (A) (A) (A) (A) (A) (A) (A) (A)
                 (A) (A) (A) (A) (A) (A) (A) (A) (A) (A) (A) (A)
                 (A) (A) (A) (A) (A) (A) (A) (A) (A) (A) (A) (A)
                 (A) (A) (A) (A) (A) (A) (A) (A) (A) (A)
       Virtual   (A) (A) (A) (A) (A) (A) (A) (A) (A) (A) (A) (A)
                 (A) (A) (A) (A) (A) (A) (A) (A) (A) (A) (A) (A)
                 (A) (A) (A) (A) (A) (A) (A) (A) (A) (A) (A) (A)
                 (A) (A) (A) (A) (A) (A) (A) (A) (A) (A) (A) (A)
                 (A) (A) (A) (A) (A) (A) (A) (A) (A) (A) (A) (A)
                 (A) (A) (A) (A) (A) (A) (A) (A) (A) (A) (A) (A)
                 (A) (A) (A) (A) (A) (A) (A) (A) (A) (A) (A) (A)
                 (A) (A) (A) (A) (A) (A) (A) (A) (A) (A) (A) (A)
                 (A) (A) (A) (A) (A) (A) (A) (A) (A) (A) (A) (A)
                 (A) (A) (A) (A) (A) (A) (A) (A) (A) (A) (A) (A)
                 (A) (A) (A) (A) (A) (A) (A) (A) (A) (A) (A) (A)
                 (A) (A) (A) (A) (A) (A) (A) (A) (A) (A) (A) (A)
                 (A) (A) (A) (A) (A) (A) (A) (A) (A) (A) (A) (A)
                 (A) (A) (A) (A) (A) (A) (A) (A) (A) (A) (A) (A)
                 (A) (A) (A) (A) (A) (A) (A) (A) (A) (A) (A) (A)
                 (A) (A) (A) (A) (A) (A) (A) (A) (A) (A) (A) (A)
                 (A) (A) (A) (A) (A) (A) (A) (A) (A) (A) (A) (A)
                 (A) (A) (A) (A) (A) (A) (A) (A) (A) (A) (A) (A)
                 (A) (A) (A) (A) (A) (A) (A) (A) (A) (A) (A) (A)
                 (A) (A) (A) (A) (A) (A) (A) (A) (A) (A) (A) (A)
                 (A) (A) (A) (A) (A) (A) (A) (A) (A) (A) (A) (A)
                 (A) (A) (A) (A) (A) (A) (A) (A) (A) (A) (A) (A)
                 (A) (A) (A) (A) (A) (A) (A) (A) (A) (A) (A) (A)
                 (A) (A) (A) (A) (A) (A) (A) (A) (A) (A) (A) (A)
                 (A) (A) (A) (A) (A) (A) (A) (A) (A) (A) (A) (A)
                 (A) (A) (A) (A) (A) (A) (A) (A) (A) (A) (A) (A)
                 (A) (A) (A) (A) (A) (A) (A) (A) (A) (A) (A) (A)
                 (A) (A) (A) (A) (A) (A) (A) (A) (A) (A) (A) (A)
                 (A) (A) (A) (A) (A) (A) (A) (A) (A) (A) (A) (A)
                 (A) (A) (A) (A) (A) (A) (A) (A) (A) (A) (A) (A)
                 (A) (A) (A) (A) (A) (A) (A) (A) (A) (A) (A) (A)
                 (A) (A) (A) (A) (A) (A) (A) (A) (A) (A) (A) (A)
                 (A) (A) (A) (A) (A) (A) (A) (A) (A) (A) (A) (A)
                 (A) (A) (A) (A) (A) (A) (A) (A) (A) (A) (A) (A)
                 (A) (A) (A) (A) (A) (A) (A) (A) (A) (A) (A) (A)
                 (A) (A) (A) (A) (A) (A) (A) (A) (A) (A) (A) (A)
                 (A) (A) (A) (A) (A) (A) (A) (A) (A) (A) (A) (A)
                 (A) (A) (A) (A) (A) (A) (A) (A) (A) (A) (A) (A)
                 (A) (A) (A) (A) (A) (A) (A) (A) (A) (A) (A) (A)
                 (A) (A) (A) (A) (A) (A) (A) (A) (A) (A) (A) (A)
                 (A) (A) (A) (A) (A) (A) (A) (A) (A) (A) (A) (A)
                 (A) (A) (A) (A) (A) (A) (A) (A) (A) (A) (A) (A)
                 (A) (A) (A) (A) (A) (A) (A) (A) (A) (A) (A) (A)
                 (A) (A) (A) (A) (A) (A) (A) (A) (A) (A) (A) (A)
                 (A) (A) (A) (A) (A) (A) (A) (A) (A) (A) (A) (A)
                 (A) (A) (A) (A) (A) (A) (A) (A) (A) (A) (A) (A)
                 (A) (A) (A) (A) (A) (A) (A) (A) (A) (A) (A) (A)
                 (A) (A) (A) (A) (A) (A) (A) (A) (A) (A) (A) (A)
                 (A) (A) (A) (A) (A) (A) (A) (A) (A) (A) (A) (A)
                 (A) (A) (A) (A) (A) (A) (A) (A) (A) (A) (A) (A)
                 (A) (A) (A) (A) (A) (A) (A) (A) (A) (A) (A) (A)
                 (A) (A) (A) (A) (A) (A) (A) (A) (A) (A) (A) (A)
                 (A) (A) (A) (A) (A) (A) (A) (A) (A) (A) (A) (A)
                 (A) (A) (A) (A) (A) (A) (A) (A) (A) (A) (A) (A)
                 (A) (A) (A) (A) (A) (A) (A) (A) (A) (A) (A) (A)
                 (A) (A) (A) (A) (A) (A) (A) (A) (A) (A) (A) (A)
                 (A) (A) (A) (A) (A) (A) (A) (A) (A) (A) (A) (A)
                 (A) (A) (A) (A) (A) (A) (A) (A) (A) (A) (A) (A)
                 (A) (A) (A) (A) (A) (A) (A) (A) (A) (A) (A) (A)
                 (A) (A) (A) (A) (A) (A) (A) (A) (A) (A) (A) (A)
                 (A) (A) (A) (A) (A) (A) (A) (A) (A) (A) (A) (A)
                 (A) (A) (A) (A) (A) (A) (A) (A) (A) (A) (A) (A)
                 (A) (A) (A) (A) (A) (A) (A) (A) (A) (A) (A) (A)
                 (A) (A) (A) (A) (A) (A) (A) (A) (A) (A) (A) (A)
                 (A) (A) (A) (A) (A) (A) (A) (A) (A) (A) (A) (A)
                 (A) (A) (A) (A) (A) (A) (A) (A) (A) (A) (A) (A)
                 (A) (A) (A) (A) (A) (A) (A) (A) (A) (A) (A) (A)
                 (A) (A) (A) (A) (A) (A) (A) (A) (A) (A) (A) (A)
                 (A) (A) (A) (A) (A) (A) (A) (A) (A) (A) (A) (A)
                 (A) (A) (A) (A) (A) (A) (A) (A) (A) (A) (A) (A)
                 (A) (A) (A) (A) (A) (A) (A) (A) (A) (A) (A) (A)
                 (A) (A) (A) (A) (A) (A) (A) (A) (A) (A) (A) (A)
                 (A) (A) (A) (A) (A) (A) (A) (A) (A) (A) (A) (A)
                 (A) (A) (A) (A) (A) (A) (A) (A) (A) (A) (A) (A)
                 (A) (A) (A) (A) (A) (A) (A) (A) (A) (A) (A) (A)
                 (A) (A) (A) (A) (A) (A) (A) (A) (A) (A) (A) (A)
                 (A) (A) (A) (A) (A) (A) (A) (A) (A) (A) (A) (A)
                 (A) (A) (A) (A) (A) (A) (A) (A) (A) (A) (A) (A)
                 (A) (A) (A) (A) (A) (A) (A) (A) (A) (A) (A) (A)
                 (A) (A) (A) (A) (A) (A) (A) (A) (A) (A) (A) (A)
                 (A) (A) (A) (A) (A) (A) (A) (A) (A) (A) (A) (A)
                 (A) (A) (A) (A) (A) (A) (A) (A) (A) (A) (A) (A)
                 (A) (A) (A) (A) (A) (A) (A) (A) (A) (A) (A) (A)
                 (A) (A) (A) (A) (A) (A) (A) (A) (A) (A) (A) (A)
                 (A) (A) (A) (A) (A) (A) (A) (A) (A) (A) (A) (A)
                 (A) (A) (A) (A) (A) (A) (A) (A) (A) (A) (A) (A)
                 (A) (A) (A) (A) (A) (A) (A) (A) (A) (A) (A) (A)
                 (A) (A) (A) (A) (A) (A) (A) (A) (A) (A) (A) (A)
                 (A) (A) (A) (A) (A) (A) (A) (A) (A) (A) (A) (A)
                 (A) (A) (A) (A) (A) (A) (A) (A) (A) (A) (A) (A)
                 (A) (A) (A) (A) (A) (A) (A) (A) (A) (A) (A) (A)
                 (A) (A) (A) (A) (A) (A) (A) (A) (A) (A) (A) (A)
                 (A) (A) (A) (A) (A) (A) (A) (A) (A) (A) (A) (A)
                 (A) (A) (A) (A) (A) (A) (A) (A) (A) (A) (A) (A)
                 (A) (A) (A) (A) (A) (A) (A) (A) (A) (A) (A) (A)
                 (A) (A) (A) (A) (A) (A) (A) (A) (A) (A) (A) (A)
                 (A) (A) (A) (A) (A) (A) (A) (A) (A) (A) (A) (A)
                 (A) (A) (A) (A) (A) (A) (A) (A) (A) (A) (A) (A)
                 (A) (A) (A) (A) (A) (A) (A) (A) (A) (A) (A) (A)
                 (A) (A) (A) (A) (A) (A) (A) (A) (A) (A) (A) (A)
                 (A) (A) (A) (A) (A) (A) (A) (A) (A) (A) (A) (A)
                 (A) (A) (A) (A) (A) (A) (A) (A) (A) (A) (A) (A)
                 (A) (A) (A) (A) (A) (A) (A) (A) (A) (A) (A) (A)
                 (A) (A) (A) (A) (A) (A) (A) (A) (A) (A) (A) (A)
                 (A) (A) (A) (A) (A) (A) (A) (A) (A) (A) (A) (A)
                 (A) (A) (A) (A) (A) (A) (A) (A) (A) (A) (A) (A)
                 (A) (A) (A) (A) (A) (A) (A) (A) (A) (A) (A) (A)
                 (A) (A) (A) (A) (A) (A) (A) (A) (A) (A) (A) (A)
                 (A) (A) (A) (A) (A) (A) (A) (A) (A) (A) (A) (A)
                 (A) (A) (A) (A) (A) (A) (A) (A)
 The electronic state is 1-A.
 Alpha  occ. eigenvalues --  -90.16504 -25.20821 -25.20797 -19.71782 -19.70001
 Alpha  occ. eigenvalues --  -19.69994 -19.69549 -19.69542 -19.66381 -19.66339
 Alpha  occ. eigenvalues --  -15.03566 -15.03073 -14.79273 -14.78835 -10.66463
 Alpha  occ. eigenvalues --  -10.65166 -10.64970 -10.63418 -10.61849 -10.61479
 Alpha  occ. eigenvalues --  -10.61128 -10.61035 -10.59464 -10.59310 -10.59200
 Alpha  occ. eigenvalues --  -10.58699 -10.57539 -10.57533 -10.56892 -10.56778
 Alpha  occ. eigenvalues --  -10.56758 -10.56668 -10.56663 -10.56587 -10.55915
 Alpha  occ. eigenvalues --  -10.54935 -10.54647 -10.54523  -8.48939  -7.13780
 Alpha  occ. eigenvalues --   -6.41207  -6.41024  -6.40938  -1.39360  -1.38773
 Alpha  occ. eigenvalues --   -1.32789  -1.29567  -1.29241  -1.21010  -1.20421
 Alpha  occ. eigenvalues --   -1.19895  -1.15664  -1.10976  -1.09090  -1.05182
 Alpha  occ. eigenvalues --   -0.98946  -0.97212  -0.94175  -0.93499  -0.91584
 Alpha  occ. eigenvalues --   -0.91151  -0.88796  -0.87552  -0.86959  -0.85327
 Alpha  occ. eigenvalues --   -0.84555  -0.82413  -0.80475  -0.78924  -0.75593
 Alpha  occ. eigenvalues --   -0.74708  -0.72827  -0.71836  -0.70590  -0.70251
 Alpha  occ. eigenvalues --   -0.69458  -0.68023  -0.67755  -0.66087  -0.65904
 Alpha  occ. eigenvalues --   -0.65055  -0.64847  -0.64455  -0.63879  -0.63554
 Alpha  occ. eigenvalues --   -0.63394  -0.63046  -0.62528  -0.60503  -0.59969
 Alpha  occ. eigenvalues --   -0.58789  -0.58633  -0.58621  -0.57716  -0.56846
 Alpha  occ. eigenvalues --   -0.56084  -0.55390  -0.54358  -0.53825  -0.53321
 Alpha  occ. eigenvalues --   -0.52658  -0.52285  -0.51850  -0.51491  -0.51253
 Alpha  occ. eigenvalues --   -0.51039  -0.50836  -0.49187  -0.49112  -0.49019
 Alpha  occ. eigenvalues --   -0.48672  -0.47930  -0.47590  -0.47343  -0.46930
 Alpha  occ. eigenvalues --   -0.46796  -0.46655  -0.45676  -0.45317  -0.44801
 Alpha  occ. eigenvalues --   -0.44280  -0.44165  -0.44077  -0.43158  -0.42911
 Alpha  occ. eigenvalues --   -0.42588  -0.42201  -0.41709  -0.41571  -0.41351
 Alpha  occ. eigenvalues --   -0.41091  -0.40923  -0.39978  -0.39720  -0.38053
 Alpha  occ. eigenvalues --   -0.37111  -0.36244  -0.33269  -0.32981  -0.32028
 Alpha  occ. eigenvalues --   -0.30801  -0.25314
 Alpha virt. eigenvalues --   -0.10337  -0.09837  -0.07916  -0.03075  -0.02018
 Alpha virt. eigenvalues --   -0.00342  -0.00158   0.03245   0.05022   0.05995
 Alpha virt. eigenvalues --    0.06412   0.06757   0.07644   0.08081   0.08489
 Alpha virt. eigenvalues --    0.08691   0.08995   0.09550   0.10223   0.10576
 Alpha virt. eigenvalues --    0.10670   0.10978   0.11129   0.11638   0.11861
 Alpha virt. eigenvalues --    0.11952   0.12210   0.12491   0.13484   0.13521
 Alpha virt. eigenvalues --    0.13733   0.14256   0.14467   0.14987   0.15496
 Alpha virt. eigenvalues --    0.15675   0.16252   0.16290   0.16950   0.17292
 Alpha virt. eigenvalues --    0.17521   0.17778   0.18494   0.18604   0.19126
 Alpha virt. eigenvalues --    0.19485   0.20012   0.20194   0.20626   0.20705
 Alpha virt. eigenvalues --    0.21211   0.21571   0.22013   0.22150   0.22419
 Alpha virt. eigenvalues --    0.22678   0.23207   0.23760   0.23970   0.24202
 Alpha virt. eigenvalues --    0.24318   0.24716   0.24922   0.25170   0.25298
 Alpha virt. eigenvalues --    0.25934   0.26175   0.26439   0.26709   0.26764
 Alpha virt. eigenvalues --    0.27109   0.27522   0.27657   0.28323   0.28625
 Alpha virt. eigenvalues --    0.28793   0.29190   0.29586   0.29791   0.29972
 Alpha virt. eigenvalues --    0.30741   0.30991   0.31163   0.31320   0.31855
 Alpha virt. eigenvalues --    0.32256   0.32414   0.32713   0.32920   0.33233
 Alpha virt. eigenvalues --    0.33979   0.34175   0.34389   0.34773   0.34923
 Alpha virt. eigenvalues --    0.35252   0.35609   0.35726   0.36098   0.36208
 Alpha virt. eigenvalues --    0.36418   0.36766   0.37081   0.37383   0.37700
 Alpha virt. eigenvalues --    0.37899   0.38175   0.38322   0.38682   0.38869
 Alpha virt. eigenvalues --    0.38992   0.39262   0.39400   0.39620   0.39784
 Alpha virt. eigenvalues --    0.39999   0.40422   0.40721   0.41042   0.41578
 Alpha virt. eigenvalues --    0.41689   0.42028   0.42192   0.42769   0.42921
 Alpha virt. eigenvalues --    0.43169   0.43306   0.43470   0.43871   0.43883
 Alpha virt. eigenvalues --    0.44100   0.44483   0.44718   0.44835   0.45717
 Alpha virt. eigenvalues --    0.45815   0.46211   0.46278   0.46522   0.47149
 Alpha virt. eigenvalues --    0.47420   0.47612   0.48176   0.48359   0.48852
 Alpha virt. eigenvalues --    0.49005   0.49152   0.49239   0.49609   0.49693
 Alpha virt. eigenvalues --    0.50276   0.50658   0.51121   0.51284   0.51670
 Alpha virt. eigenvalues --    0.51882   0.52180   0.52311   0.52832   0.52972
 Alpha virt. eigenvalues --    0.53388   0.53799   0.54155   0.54330   0.54824
 Alpha virt. eigenvalues --    0.55087   0.55503   0.56175   0.56485   0.56541
 Alpha virt. eigenvalues --    0.56809   0.57160   0.57505   0.57748   0.57930
 Alpha virt. eigenvalues --    0.58259   0.58556   0.59105   0.59537   0.59782
 Alpha virt. eigenvalues --    0.60372   0.60938   0.61204   0.61628   0.61756
 Alpha virt. eigenvalues --    0.61962   0.62471   0.62711   0.62819   0.63008
 Alpha virt. eigenvalues --    0.63697   0.63867   0.64230   0.64615   0.64974
 Alpha virt. eigenvalues --    0.65484   0.65644   0.66050   0.66163   0.66520
 Alpha virt. eigenvalues --    0.66929   0.67227   0.67434   0.67525   0.68160
 Alpha virt. eigenvalues --    0.68371   0.68554   0.68647   0.69145   0.69260
 Alpha virt. eigenvalues --    0.70021   0.70472   0.70734   0.70958   0.71471
 Alpha virt. eigenvalues --    0.71523   0.71816   0.71884   0.72446   0.72985
 Alpha virt. eigenvalues --    0.73226   0.73523   0.74117   0.74437   0.74718
 Alpha virt. eigenvalues --    0.74948   0.75286   0.75568   0.76076   0.76675
 Alpha virt. eigenvalues --    0.76899   0.76999   0.77867   0.78021   0.78204
 Alpha virt. eigenvalues --    0.78960   0.79115   0.79890   0.80172   0.80273
 Alpha virt. eigenvalues --    0.80635   0.80887   0.81209   0.81707   0.82018
 Alpha virt. eigenvalues --    0.82299   0.83133   0.83486   0.83612   0.83794
 Alpha virt. eigenvalues --    0.84144   0.84674   0.84807   0.85239   0.85851
 Alpha virt. eigenvalues --    0.86015   0.86243   0.87126   0.87524   0.87572
 Alpha virt. eigenvalues --    0.87854   0.88793   0.89111   0.89462   0.89536
 Alpha virt. eigenvalues --    0.90544   0.91000   0.91250   0.91587   0.91879
 Alpha virt. eigenvalues --    0.92579   0.92967   0.93569   0.93884   0.94135
 Alpha virt. eigenvalues --    0.94246   0.94568   0.94774   0.95036   0.96003
 Alpha virt. eigenvalues --    0.96373   0.96751   0.96898   0.97676   0.97805
 Alpha virt. eigenvalues --    0.98142   0.98511   0.98729   0.99473   1.00322
 Alpha virt. eigenvalues --    1.00410   1.00454   1.00640   1.01110   1.01448
 Alpha virt. eigenvalues --    1.01904   1.02587   1.02803   1.03191   1.03525
 Alpha virt. eigenvalues --    1.04168   1.04501   1.04642   1.05240   1.05777
 Alpha virt. eigenvalues --    1.06690   1.06782   1.06943   1.07251   1.07715
 Alpha virt. eigenvalues --    1.07800   1.08617   1.08998   1.09513   1.09867
 Alpha virt. eigenvalues --    1.10135   1.10611   1.10827   1.11360   1.12486
 Alpha virt. eigenvalues --    1.12816   1.13219   1.13788   1.13914   1.14526
 Alpha virt. eigenvalues --    1.14840   1.15636   1.15821   1.16456   1.16566
 Alpha virt. eigenvalues --    1.17555   1.18365   1.18675   1.18814   1.19697
 Alpha virt. eigenvalues --    1.19929   1.20076   1.20330   1.21013   1.21740
 Alpha virt. eigenvalues --    1.22019   1.22246   1.22372   1.23161   1.23297
 Alpha virt. eigenvalues --    1.24035   1.24532   1.25048   1.25984   1.26115
 Alpha virt. eigenvalues --    1.26232   1.26691   1.26977   1.27320   1.27601
 Alpha virt. eigenvalues --    1.27772   1.28713   1.29254   1.29501   1.30224
 Alpha virt. eigenvalues --    1.30391   1.30822   1.31008   1.31475   1.31842
 Alpha virt. eigenvalues --    1.32551   1.33031   1.33242   1.33547   1.34121
 Alpha virt. eigenvalues --    1.34648   1.34915   1.35389   1.35697   1.35986
 Alpha virt. eigenvalues --    1.36300   1.37151   1.37555   1.38051   1.39018
 Alpha virt. eigenvalues --    1.39617   1.39775   1.40044   1.40815   1.41115
 Alpha virt. eigenvalues --    1.41817   1.41945   1.42501   1.42741   1.42856
 Alpha virt. eigenvalues --    1.43943   1.44024   1.44287   1.44631   1.45410
 Alpha virt. eigenvalues --    1.45850   1.46323   1.47125   1.47402   1.47585
 Alpha virt. eigenvalues --    1.47898   1.48343   1.48449   1.48950   1.49702
 Alpha virt. eigenvalues --    1.49870   1.50102   1.50305   1.51041   1.51373
 Alpha virt. eigenvalues --    1.51944   1.52333   1.52594   1.53001   1.53246
 Alpha virt. eigenvalues --    1.53620   1.53889   1.54419   1.54638   1.54993
 Alpha virt. eigenvalues --    1.55724   1.56125   1.56221   1.56495   1.56932
 Alpha virt. eigenvalues --    1.57541   1.58179   1.58457   1.58678   1.59361
 Alpha virt. eigenvalues --    1.59769   1.59822   1.60688   1.60842   1.61580
 Alpha virt. eigenvalues --    1.61895   1.62077   1.62733   1.62950   1.63478
 Alpha virt. eigenvalues --    1.64023   1.64629   1.65230   1.65359   1.65557
 Alpha virt. eigenvalues --    1.66211   1.66902   1.66984   1.67511   1.68161
 Alpha virt. eigenvalues --    1.68330   1.68964   1.69350   1.69561   1.70214
 Alpha virt. eigenvalues --    1.70454   1.70749   1.71690   1.72465   1.73021
 Alpha virt. eigenvalues --    1.73254   1.73375   1.74234   1.74352   1.74661
 Alpha virt. eigenvalues --    1.75861   1.76213   1.76975   1.77191   1.77422
 Alpha virt. eigenvalues --    1.77918   1.78346   1.78576   1.79020   1.79682
 Alpha virt. eigenvalues --    1.79888   1.80303   1.80971   1.81703   1.82062
 Alpha virt. eigenvalues --    1.83506   1.84111   1.84613   1.84874   1.85171
 Alpha virt. eigenvalues --    1.86406   1.86617   1.86754   1.87340   1.88042
 Alpha virt. eigenvalues --    1.88616   1.89345   1.89872   1.90316   1.91507
 Alpha virt. eigenvalues --    1.91791   1.92290   1.92936   1.93423   1.93842
 Alpha virt. eigenvalues --    1.94284   1.94789   1.95782   1.96301   1.96412
 Alpha virt. eigenvalues --    1.96769   1.97514   1.98519   1.98757   2.00244
 Alpha virt. eigenvalues --    2.00507   2.01100   2.01621   2.01899   2.02278
 Alpha virt. eigenvalues --    2.02480   2.03969   2.04252   2.04444   2.04707
 Alpha virt. eigenvalues --    2.04965   2.05412   2.05991   2.07189   2.08143
 Alpha virt. eigenvalues --    2.08726   2.08881   2.09039   2.09736   2.10151
 Alpha virt. eigenvalues --    2.10552   2.12023   2.12332   2.12729   2.13608
 Alpha virt. eigenvalues --    2.13812   2.15097   2.16032   2.16324   2.16621
 Alpha virt. eigenvalues --    2.17676   2.18174   2.18392   2.19229   2.19689
 Alpha virt. eigenvalues --    2.20216   2.20753   2.21558   2.22018   2.22678
 Alpha virt. eigenvalues --    2.23205   2.23367   2.23968   2.24415   2.24660
 Alpha virt. eigenvalues --    2.25497   2.26012   2.26725   2.28014   2.28291
 Alpha virt. eigenvalues --    2.28718   2.28899   2.29613   2.30196   2.30842
 Alpha virt. eigenvalues --    2.31548   2.32023   2.32953   2.33268   2.33744
 Alpha virt. eigenvalues --    2.34257   2.34592   2.35454   2.36016   2.36799
 Alpha virt. eigenvalues --    2.37372   2.37981   2.38388   2.39068   2.39252
 Alpha virt. eigenvalues --    2.39911   2.41286   2.42154   2.42698   2.43017
 Alpha virt. eigenvalues --    2.43788   2.44506   2.45061   2.45703   2.46332
 Alpha virt. eigenvalues --    2.46821   2.46989   2.47761   2.48635   2.49776
 Alpha virt. eigenvalues --    2.50482   2.51576   2.51763   2.52211   2.53643
 Alpha virt. eigenvalues --    2.54020   2.54787   2.56369   2.57386   2.57892
 Alpha virt. eigenvalues --    2.58547   2.58699   2.59517   2.59906   2.60724
 Alpha virt. eigenvalues --    2.61862   2.62176   2.62500   2.62552   2.63234
 Alpha virt. eigenvalues --    2.63325   2.64003   2.64305   2.64663   2.65657
 Alpha virt. eigenvalues --    2.65908   2.67307   2.67712   2.68228   2.68474
 Alpha virt. eigenvalues --    2.68969   2.69364   2.70582   2.70890   2.71312
 Alpha virt. eigenvalues --    2.71672   2.71990   2.72495   2.72863   2.73351
 Alpha virt. eigenvalues --    2.74011   2.74364   2.74475   2.74748   2.75065
 Alpha virt. eigenvalues --    2.75379   2.76021   2.76286   2.76664   2.76867
 Alpha virt. eigenvalues --    2.77133   2.77661   2.78084   2.78592   2.78919
 Alpha virt. eigenvalues --    2.80226   2.80531   2.80720   2.80948   2.81416
 Alpha virt. eigenvalues --    2.82224   2.82600   2.82783   2.83288   2.83481
 Alpha virt. eigenvalues --    2.84516   2.84799   2.85106   2.85198   2.86083
 Alpha virt. eigenvalues --    2.86738   2.87092   2.87190   2.88079   2.88254
 Alpha virt. eigenvalues --    2.89153   2.89658   2.89866   2.90540   2.90977
 Alpha virt. eigenvalues --    2.91071   2.91428   2.91578   2.91933   2.92272
 Alpha virt. eigenvalues --    2.92659   2.92972   2.93591   2.93951   2.94180
 Alpha virt. eigenvalues --    2.94344   2.94882   2.95496   2.95719   2.95985
 Alpha virt. eigenvalues --    2.96585   2.96866   2.97056   2.97224   2.97718
 Alpha virt. eigenvalues --    2.98232   2.98570   2.98906   2.99211   2.99814
 Alpha virt. eigenvalues --    3.00119   3.00282   3.00454   3.00743   3.01151
 Alpha virt. eigenvalues --    3.01818   3.01963   3.02165   3.02871   3.03016
 Alpha virt. eigenvalues --    3.03497   3.03515   3.04283   3.04377   3.04678
 Alpha virt. eigenvalues --    3.05177   3.05650   3.05828   3.05918   3.06346
 Alpha virt. eigenvalues --    3.06595   3.07229   3.07596   3.08055   3.08150
 Alpha virt. eigenvalues --    3.08588   3.09055   3.09280   3.09875   3.10279
 Alpha virt. eigenvalues --    3.10789   3.11041   3.11192   3.11787   3.12357
 Alpha virt. eigenvalues --    3.12552   3.13121   3.13565   3.14106   3.14381
 Alpha virt. eigenvalues --    3.14728   3.15172   3.15342   3.15833   3.16034
 Alpha virt. eigenvalues --    3.16591   3.16855   3.16942   3.17279   3.17528
 Alpha virt. eigenvalues --    3.18095   3.18361   3.18725   3.18936   3.19691
 Alpha virt. eigenvalues --    3.19917   3.20426   3.20432   3.21017   3.21238
 Alpha virt. eigenvalues --    3.21445   3.21945   3.22196   3.22513   3.23123
 Alpha virt. eigenvalues --    3.23414   3.23668   3.23753   3.24554   3.25042
 Alpha virt. eigenvalues --    3.25323   3.25772   3.26814   3.27151   3.27402
 Alpha virt. eigenvalues --    3.27746   3.28338   3.28585   3.29256   3.29460
 Alpha virt. eigenvalues --    3.29865   3.30331   3.30417   3.30930   3.31195
 Alpha virt. eigenvalues --    3.31888   3.32244   3.32526   3.33413   3.34005
 Alpha virt. eigenvalues --    3.34281   3.34889   3.35031   3.35465   3.35903
 Alpha virt. eigenvalues --    3.36442   3.36957   3.37075   3.37416   3.38585
 Alpha virt. eigenvalues --    3.38750   3.38931   3.39525   3.39716   3.40543
 Alpha virt. eigenvalues --    3.41399   3.41864   3.42227   3.42494   3.43074
 Alpha virt. eigenvalues --    3.43354   3.43740   3.44081   3.45102   3.45486
 Alpha virt. eigenvalues --    3.45694   3.46131   3.46331   3.46880   3.48024
 Alpha virt. eigenvalues --    3.48611   3.49039   3.49426   3.49904   3.50303
 Alpha virt. eigenvalues --    3.50578   3.51097   3.51294   3.51949   3.52464
 Alpha virt. eigenvalues --    3.52617   3.52775   3.53183   3.53538   3.54252
 Alpha virt. eigenvalues --    3.54559   3.55269   3.55334   3.56913   3.57277
 Alpha virt. eigenvalues --    3.58315   3.58849   3.60661   3.61073   3.61333
 Alpha virt. eigenvalues --    3.61684   3.62122   3.62462   3.63304   3.63347
 Alpha virt. eigenvalues --    3.64069   3.64307   3.64587   3.64825   3.65216
 Alpha virt. eigenvalues --    3.65743   3.66138   3.66952   3.68758   3.68979
 Alpha virt. eigenvalues --    3.69287   3.70181   3.70462   3.70637   3.71450
 Alpha virt. eigenvalues --    3.71922   3.72241   3.73384   3.73661   3.73761
 Alpha virt. eigenvalues --    3.74132   3.74569   3.75470   3.75850   3.76541
 Alpha virt. eigenvalues --    3.76593   3.76823   3.77450   3.77918   3.78402
 Alpha virt. eigenvalues --    3.78852   3.79321   3.79988   3.80504   3.80886
 Alpha virt. eigenvalues --    3.81883   3.82483   3.82870   3.83660   3.84181
 Alpha virt. eigenvalues --    3.84274   3.84527   3.85515   3.86268   3.86301
 Alpha virt. eigenvalues --    3.86514   3.87105   3.87554   3.88185   3.88876
 Alpha virt. eigenvalues --    3.89383   3.89788   3.90421   3.90506   3.91021
 Alpha virt. eigenvalues --    3.91966   3.92268   3.92841   3.93101   3.93694
 Alpha virt. eigenvalues --    3.94405   3.94615   3.94753   3.95543   3.95873
 Alpha virt. eigenvalues --    3.96343   3.97206   3.97538   3.98397   3.98702
 Alpha virt. eigenvalues --    3.99791   4.00431   4.00612   4.01890   4.02026
 Alpha virt. eigenvalues --    4.02345   4.02495   4.03401   4.03951   4.04159
 Alpha virt. eigenvalues --    4.04492   4.05043   4.05337   4.06160   4.06287
 Alpha virt. eigenvalues --    4.06835   4.07753   4.08558   4.09094   4.09252
 Alpha virt. eigenvalues --    4.09439   4.10230   4.10920   4.11406   4.11548
 Alpha virt. eigenvalues --    4.11701   4.12785   4.13301   4.13590   4.13865
 Alpha virt. eigenvalues --    4.14882   4.15436   4.15514   4.16066   4.16239
 Alpha virt. eigenvalues --    4.16979   4.17400   4.17753   4.18118   4.18800
 Alpha virt. eigenvalues --    4.19454   4.19686   4.20235   4.20558   4.20961
 Alpha virt. eigenvalues --    4.22319   4.22820   4.23018   4.23551   4.24312
 Alpha virt. eigenvalues --    4.24635   4.25144   4.25507   4.26321   4.26592
 Alpha virt. eigenvalues --    4.27506   4.27928   4.28475   4.28887   4.29172
 Alpha virt. eigenvalues --    4.30103   4.30635   4.30744   4.31825   4.32472
 Alpha virt. eigenvalues --    4.32963   4.33377   4.33844   4.34952   4.35846
 Alpha virt. eigenvalues --    4.36001   4.36530   4.37216   4.38392   4.38565
 Alpha virt. eigenvalues --    4.39151   4.40948   4.41621   4.43465   4.43858
 Alpha virt. eigenvalues --    4.44494   4.44861   4.45267   4.45441   4.46515
 Alpha virt. eigenvalues --    4.48832   4.49298   4.49679   4.50155   4.50630
 Alpha virt. eigenvalues --    4.51019   4.52815   4.53191   4.55156   4.55947
 Alpha virt. eigenvalues --    4.56607   4.57228   4.58838   4.59865   4.60020
 Alpha virt. eigenvalues --    4.60634   4.62481   4.62576   4.62630   4.63486
 Alpha virt. eigenvalues --    4.64666   4.65024   4.65765   4.66170   4.67059
 Alpha virt. eigenvalues --    4.67261   4.67806   4.68929   4.69545   4.69733
 Alpha virt. eigenvalues --    4.70494   4.70771   4.71635   4.72419   4.73952
 Alpha virt. eigenvalues --    4.74636   4.74865   4.76193   4.76745   4.78025
 Alpha virt. eigenvalues --    4.78680   4.80026   4.80229   4.81139   4.82779
 Alpha virt. eigenvalues --    4.83355   4.84191   4.84354   4.85966   4.86280
 Alpha virt. eigenvalues --    4.87675   4.88104   4.88688   4.89931   4.90789
 Alpha virt. eigenvalues --    4.91075   4.91480   4.91811   4.93059   4.93417
 Alpha virt. eigenvalues --    4.93880   4.94395   4.95601   4.96420   4.97637
 Alpha virt. eigenvalues --    4.98198   5.00028   5.00166   5.01104   5.02090
 Alpha virt. eigenvalues --    5.02857   5.03587   5.04534   5.05065   5.05939
 Alpha virt. eigenvalues --    5.07083   5.08020   5.08188   5.08564   5.08666
 Alpha virt. eigenvalues --    5.09629   5.10227   5.10921   5.11125   5.11663
 Alpha virt. eigenvalues --    5.12319   5.12610   5.13310   5.13733   5.14076
 Alpha virt. eigenvalues --    5.14406   5.14449   5.14819   5.15029   5.15218
 Alpha virt. eigenvalues --    5.15673   5.16010   5.16358   5.16891   5.17350
 Alpha virt. eigenvalues --    5.17726   5.17816   5.17967   5.18951   5.19318
 Alpha virt. eigenvalues --    5.19664   5.20107   5.20599   5.21616   5.22795
 Alpha virt. eigenvalues --    5.23209   5.23620   5.24475   5.25299   5.25666
 Alpha virt. eigenvalues --    5.26020   5.27218   5.27323   5.27637   5.27916
 Alpha virt. eigenvalues --    5.28526   5.28752   5.28859   5.29696   5.30988
 Alpha virt. eigenvalues --    5.31855   5.32107   5.33130   5.33391   5.34445
 Alpha virt. eigenvalues --    5.34666   5.36214   5.36579   5.37037   5.37512
 Alpha virt. eigenvalues --    5.37977   5.39301   5.39892   5.41850   5.42400
 Alpha virt. eigenvalues --    5.44755   5.45244   5.45884   5.47324   5.47958
 Alpha virt. eigenvalues --    5.49176   5.49375   5.50854   5.51403   5.51745
 Alpha virt. eigenvalues --    5.52459   5.53640   5.55768   5.55778   5.56786
 Alpha virt. eigenvalues --    5.57329   5.57793   5.58810   5.59181   5.59441
 Alpha virt. eigenvalues --    5.60524   5.62335   5.62572   5.64236   5.65805
 Alpha virt. eigenvalues --    5.66449   5.66785   5.68276   5.69073   5.71774
 Alpha virt. eigenvalues --    5.72748   5.74926   5.77086   5.78121   5.81327
 Alpha virt. eigenvalues --    5.81555   5.83602   5.84958   5.86086   5.90593
 Alpha virt. eigenvalues --    5.91201   5.91800   5.92899   5.96018   5.97921
 Alpha virt. eigenvalues --    5.99889   6.05552   6.09875   6.13648   6.18553
 Alpha virt. eigenvalues --    6.20984   6.21397   6.23703   6.24258   6.25140
 Alpha virt. eigenvalues --    6.27324   6.27977   6.30941   6.31632   6.33319
 Alpha virt. eigenvalues --    6.35618   6.36604   6.37346   6.38420   6.39439
 Alpha virt. eigenvalues --    6.39866   6.41697   6.42757   6.44820   6.51232
 Alpha virt. eigenvalues --    6.52739   6.60797   6.62743   6.64860   6.67208
 Alpha virt. eigenvalues --    6.69920   6.71348   6.73851   6.76128   6.80103
 Alpha virt. eigenvalues --    6.81328   6.82266   6.82605   6.84818   6.85105
 Alpha virt. eigenvalues --    6.87172   6.87371   6.88419   6.93693   6.94359
 Alpha virt. eigenvalues --    6.96129   6.96789   6.98524   6.98752   7.00098
 Alpha virt. eigenvalues --    7.01475   7.05012   7.05712   7.07260   7.10755
 Alpha virt. eigenvalues --    7.10935   7.17180   7.17772   7.20417   7.21095
 Alpha virt. eigenvalues --    7.21387   7.23907   7.26685   7.27922   7.32963
 Alpha virt. eigenvalues --    7.34045   7.34437   7.34475   7.38928   7.43751
 Alpha virt. eigenvalues --    7.48266   7.52964   7.74060   7.82930   8.44726
 Alpha virt. eigenvalues --    8.47685   8.54552   8.59771   8.81563   8.85575
 Alpha virt. eigenvalues --    8.88646   8.91503   8.92027   8.99418   9.43977
 Alpha virt. eigenvalues --    9.62583   9.94990  15.84535  22.30990  22.70906
 Alpha virt. eigenvalues --   22.81160  22.91789  23.02446  23.03091  23.08848
 Alpha virt. eigenvalues --   23.10226  23.15551  23.21064  23.25132  23.28942
 Alpha virt. eigenvalues --   23.29158  23.30790  23.33276  23.35172  23.39304
 Alpha virt. eigenvalues --   23.42396  23.50767  23.54750  23.69965  23.81500
 Alpha virt. eigenvalues --   23.88302  23.88717  24.07014  32.57084  32.60871
 Alpha virt. eigenvalues --   33.09139  33.16854  43.82442  44.05217  44.15736
 Alpha virt. eigenvalues --   44.20766  44.21189  44.25215  44.37861  57.29542
 Alpha virt. eigenvalues --   57.54832
          Condensed to atoms (all electrons):
 Mulliken charges:
               1
     1  C   -0.413615
     2  C   -0.051644
     3  C    0.068174
     4  C   -0.023789
     5  C   -0.022360
     6  C   -0.134954
     7  C   -0.242236
     8  C   -0.054309
     9  N   -0.082577
    10  B    0.380584
    11  F   -0.357646
    12  F   -0.343433
    13  N   -0.113757
    14  C   -0.001692
    15  C   -0.067153
    16  C   -0.084306
    17  C    0.047321
    18  C   -0.182745
    19  C   -0.119979
    20  C    0.145643
    21  O   -0.311248
    22  S    0.909331
    23  O   -0.451001
    24  O   -0.490227
    25  C   -0.093692
    26  C    0.073460
    27  C   -0.004383
    28  C   -0.011042
    29  C   -0.090901
    30  C   -0.033978
    31  N    0.504202
    32  O   -0.344944
    33  O   -0.342875
    34  N    0.465962
    35  O   -0.320494
    36  O   -0.326961
    37  C   -0.134126
    38  C   -0.125966
    39  C   -0.060415
    40  H    0.158731
    41  H    0.127255
    42  H    0.153918
    43  H    0.174288
    44  H    0.185694
    45  H    0.177230
    46  H    0.180655
    47  H    0.109829
    48  H    0.137372
    49  H    0.161353
    50  H    0.165095
    51  H    0.213922
    52  H    0.207571
    53  H    0.191705
    54  H    0.177469
    55  H    0.151105
    56  H    0.170577
 Sum of Mulliken charges =  -0.00000
 Mulliken charges with hydrogens summed into heavy atoms:
               1
     1  C    0.026289
     2  C   -0.051644
     3  C    0.068174
     4  C    0.150499
     5  C   -0.022360
     6  C    0.050740
     7  C   -0.065006
     8  C    0.126346
     9  N   -0.082577
    10  B    0.380584
    11  F   -0.357646
    12  F   -0.343433
    13  N   -0.113757
    14  C   -0.001692
    15  C    0.042676
    16  C    0.053067
    17  C    0.047321
    18  C   -0.021392
    19  C    0.045116
    20  C    0.145643
    21  O   -0.311248
    22  S    0.909331
    23  O   -0.451001
    24  O   -0.490227
    25  C   -0.093692
    26  C    0.073460
    27  C    0.209539
    28  C   -0.011042
    29  C    0.116671
    30  C    0.157728
    31  N    0.504202
    32  O   -0.344944
    33  O   -0.342875
    34  N    0.465962
    35  O   -0.320494
    36  O   -0.326961
    37  C    0.043343
    38  C    0.025138
    39  C    0.110162
 Electronic spatial extent (au):  <R**2>=          41078.1126
 Charge=              0.0000 electrons
 Dipole moment (field-independent basis, Debye):
    X=             -4.1020    Y=              1.8154    Z=              0.5352  Tot=              4.5176
 Quadrupole moment (field-independent basis, Debye-Ang):
   XX=           -162.9795   YY=           -208.4007   ZZ=           -249.9667
   XY=            -39.9341   XZ=              8.0545   YZ=              5.4361
 Traceless Quadrupole moment (field-independent basis, Debye-Ang):
   XX=             44.1361   YY=             -1.2850   ZZ=            -42.8511
   XY=            -39.9341   XZ=              8.0545   YZ=              5.4361
 Octapole moment (field-independent basis, Debye-Ang**2):
  XXX=          -1031.7252  YYY=             -2.8758  ZZZ=             -9.9861  XYY=           -100.1530
  XXY=             53.6918  XXZ=            192.2755  XZZ=             28.5737  YZZ=             -8.4573
  YYZ=             -1.5485  XYZ=            -33.9915
 Hexadecapole moment (field-independent basis, Debye-Ang**3):
 XXXX=         -47192.6723 YYYY=          -3310.6419 ZZZZ=          -1300.3236 XXXY=          -1197.8198
 XXXZ=           1944.3427 YYYX=            -76.8461 YYYZ=             88.2843 ZZZX=           -118.5210
 ZZZY=            -23.0092 XXYY=          -7879.9219 XXZZ=          -9151.7332 YYZZ=           -853.6712
 XXYZ=            254.7188 YYXZ=             85.6384 ZZXY=            -76.9037
 N-N= 4.193262855292D+03 E-N=-1.376270815884D+04  KE= 2.282648766177D+03
 No NMR shielding tensors so no spin-rotation constants.
 Leave Link  601 at Fri Nov  7 18:44:59 2025, MaxMem= 30870077440 cpu:             224.1 elap:               4.4
 (Enter /public/software/gauss/g16/l9999.exe)
 1\1\GINC-CU015\SP\RM062X\def2TZVPP\C24H17B1F2N4O7S1\BAIDING\07-Nov-202
 5\0\\#p M062X/DEF2TZVPP scrf=(solvent=water) em=GD3\\Energy calculatio
 n for M100036982\\0,1\C,0,-7.783225,3.657172,0.612804\C,0,-6.742845,2.
 604098,0.402574\C,0,-6.986526,1.220838,0.134386\C,0,-8.199375,0.573793
 ,-0.036248\C,0,-8.268657,-0.781962,-0.361297\C,0,-9.366749,-1.644857,-
 0.580016\C,0,-8.842551,-2.90163,-0.880725\C,0,-7.442865,-2.780464,-0.8
 40151\N,0,-7.096324,-1.512863,-0.530499\B,0,-5.6508,-0.964373,-0.37268
 3\F,0,-5.008251,-1.69239,0.641376\F,0,-4.948272,-1.111683,-1.569533\N,
 0,-5.761122,0.549236,0.013978\C,0,-4.773365,1.47674,0.188065\C,0,-3.34
 0443,1.302455,0.153736\C,0,-2.621397,0.154893,0.199886\C,0,-1.16343,0.
 05788,0.155488\C,0,-0.306069,1.171028,0.022208\C,0,1.073695,1.011904,-
 0.017725\C,0,1.602634,-0.274279,0.067649\O,0,3.006729,-0.430691,-0.062
 553\S,0,3.874678,-0.680773,1.31042\O,0,3.540572,0.314169,2.327896\O,0,
 3.781339,-2.093338,1.68203\C,0,5.51472,-0.421763,0.584113\C,0,5.901236
 ,0.644528,-0.248684\C,0,7.176874,0.699871,-0.790893\C,0,8.076023,-0.30
 6224,-0.45883\C,0,7.735439,-1.366254,0.367704\C,0,6.43821,-1.424019,0.
 876216\N,0,9.436702,-0.239218,-1.016056\O,0,9.714261,0.71293,-1.743976
 \O,0,10.220897,-1.140065,-0.722585\N,0,5.013568,1.763673,-0.596516\O,0
 ,5.140263,2.259677,-1.713121\O,0,4.222518,2.154339,0.258587\C,0,0.7973
 92,-1.401177,0.195456\C,0,-0.582492,-1.223725,0.241555\C,0,-5.370084,2
 .748983,0.418518\H,0,-8.401915,3.435298,1.489471\H,0,-7.316777,4.63326
 1,0.764094\H,0,-8.457775,3.729739,-0.247166\H,0,-9.118057,1.139504,0.0
 75602\H,0,-10.407176,-1.356102,-0.517715\H,0,-9.38871,-3.806917,-1.105
 787\H,0,-6.690546,-3.537098,-1.017462\H,0,-2.815168,2.253365,0.117868\
 H,0,-3.137086,-0.792101,0.30456\H,0,-0.714888,2.172657,-0.053316\H,0,1
 .736996,1.862618,-0.124533\H,0,7.461613,1.515272,-1.441925\H,0,8.45487
 ,-2.139343,0.603233\H,0,6.144664,-2.265773,1.490255\H,0,1.237841,-2.39
 0346,0.244273\H,0,-1.226945,-2.092107,0.337223\H,0,-4.812384,3.660029,
 0.590113\\Version=ES64L-G16RevA.03\State=1-A\HF=-2293.0737204\RMSD=7.0
 52e-09\Dipole=-1.6138612,0.714223,0.2105557\Quadrupole=32.814115,-0.95
 53767,-31.8587383,-29.6900284,5.9883339,4.0415766\PG=C01 [X(C24H17B1F2
 N4O7S1)]\\@


 ... IT CAN BE VERY DIFFICULT, IN THESE COMPLEX TIMES,
 TO UNDERSTAND JUST HOW SCIENTISTS DO WHAT THEY DO.

                     DON MOSER IN THE FEBRUARY 1979 SMITHSONIAN
 Job cpu time:       0 days 12 hours 37 minutes  2.2 seconds.
 Elapsed time:       0 days  0 hours 12 minutes  2.4 seconds.
 File lengths (MBytes):  RWF=   1438 Int=      0 D2E=      0 Chk=    125 Scr=      1
 Normal termination of Gaussian 16 at Fri Nov  7 18:45:00 2025.
