 Entering Gaussian System, Link 0=g16
 Input=M100023564_reduced_sp.gjf
 Output=M100023564_reduced_sp.log
 Initial command:
 /public/software/gauss/g16/l1.exe "/public/home/baiding/1101_v2_sp/tmp_M100023564_reduced_sp_1568608/Gau-4096846.inp" -scrdir="/public/home/baiding/1101_v2_sp/tmp_M100023564_reduced_sp_1568608/"
 Entering Link 1 = /public/software/gauss/g16/l1.exe PID=   4096847.
  
 Copyright (c) 1988,1990,1992,1993,1995,1998,2003,2009,2016,
            Gaussian, Inc.  All Rights Reserved.
  
 This is part of the Gaussian(R) 16 program.  It is based on
 the Gaussian(R) 09 system (copyright 2009, Gaussian, Inc.),
 the Gaussian(R) 03 system (copyright 2003, Gaussian, Inc.),
 the Gaussian(R) 98 system (copyright 1998, Gaussian, Inc.),
 the Gaussian(R) 94 system (copyright 1995, Gaussian, Inc.),
 the Gaussian 92(TM) system (copyright 1992, Gaussian, Inc.),
 the Gaussian 90(TM) system (copyright 1990, Gaussian, Inc.),
 the Gaussian 88(TM) system (copyright 1988, Gaussian, Inc.),
 the Gaussian 86(TM) system (copyright 1986, Carnegie Mellon
 University), and the Gaussian 82(TM) system (copyright 1983,
 Carnegie Mellon University). Gaussian is a federally registered
 trademark of Gaussian, Inc.
  
 This software contains proprietary and confidential information,
 including trade secrets, belonging to Gaussian, Inc.
  
 This software is provided under written license and may be
 used, copied, transmitted, or stored only in accord with that
 written license.
  
 The following legend is applicable only to US Government
 contracts under FAR:
  
                    RESTRICTED RIGHTS LEGEND
  
 Use, reproduction and disclosure by the US Government is
 subject to restrictions as set forth in subparagraphs (a)
 and (c) of the Commercial Computer Software - Restricted
 Rights clause in FAR 52.227-19.
  
 Gaussian, Inc.
 340 Quinnipiac St., Bldg. 40, Wallingford CT 06492
  
  
 ---------------------------------------------------------------
 Warning -- This program may not be used in any manner that
 competes with the business of Gaussian, Inc. or will provide
 assistance to any competitor of Gaussian, Inc.  The licensee
 of this program is prohibited from giving any competitor of
 Gaussian, Inc. access to this program.  By using this program,
 the user acknowledges that Gaussian, Inc. is engaged in the
 business of creating and licensing software in the field of
 computational chemistry and represents and warrants to the
 licensee that it is not a competitor of Gaussian, Inc. and that
 it will not use this program in any manner prohibited above.
 ---------------------------------------------------------------
  

 Cite this work as:
 Gaussian 16, Revision A.03,
 M. J. Frisch, G. W. Trucks, H. B. Schlegel, G. E. Scuseria, 
 M. A. Robb, J. R. Cheeseman, G. Scalmani, V. Barone, 
 G. A. Petersson, H. Nakatsuji, X. Li, M. Caricato, A. V. Marenich, 
 J. Bloino, B. G. Janesko, R. Gomperts, B. Mennucci, H. P. Hratchian, 
 J. V. Ortiz, A. F. Izmaylov, J. L. Sonnenberg, D. Williams-Young, 
 F. Ding, F. Lipparini, F. Egidi, J. Goings, B. Peng, A. Petrone, 
 T. Henderson, D. Ranasinghe, V. G. Zakrzewski, J. Gao, N. Rega, 
 G. Zheng, W. Liang, M. Hada, M. Ehara, K. Toyota, R. Fukuda, 
 J. Hasegawa, M. Ishida, T. Nakajima, Y. Honda, O. Kitao, H. Nakai, 
 T. Vreven, K. Throssell, J. A. Montgomery, Jr., J. E. Peralta, 
 F. Ogliaro, M. J. Bearpark, J. J. Heyd, E. N. Brothers, K. N. Kudin, 
 V. N. Staroverov, T. A. Keith, R. Kobayashi, J. Normand, 
 K. Raghavachari, A. P. Rendell, J. C. Burant, S. S. Iyengar, 
 J. Tomasi, M. Cossi, J. M. Millam, M. Klene, C. Adamo, R. Cammi, 
 J. W. Ochterski, R. L. Martin, K. Morokuma, O. Farkas, 
 J. B. Foresman, and D. J. Fox, Gaussian, Inc., Wallingford CT, 2016.
 
 ******************************************
 Gaussian 16:  ES64L-G16RevA.03 25-Dec-2016
                 5-Nov-2025 
 ******************************************
 %nprocshared=64
 Will use up to   64 processors via shared memory.
 %mem=230GB
 %chk=M100023564_reduced_sp.chk
 ----------------------------------------------
 #p M062X/DEF2TZVPP scrf=(solvent=water) em=GD3
 ----------------------------------------------
 1/38=1,172=1/1;
 2/12=2,17=6,18=5,40=1/2;
 3/5=44,7=202,11=2,25=1,30=1,70=2201,72=1,74=-55,124=31/1,2,3;
 4//1;
 5/5=2,38=5,53=1/2;
 6/7=2,8=2,9=2,10=2,28=1/1;
 99/5=1,9=1/99;
 Leave Link    1 at Wed Nov  5 21:30:35 2025, MaxMem= 30870077440 cpu:              21.1 elap:               0.3
 (Enter /public/software/gauss/g16/l101.exe)
 -----------------------------------------
 Energy calculation for M100023564_reduced
 -----------------------------------------
 Symbolic Z-matrix:
 Charge = -1 Multiplicity = 2
 C                     2.22369  -2.90753   0.00092 
 C                     2.22127  -1.41292   0.00269 
 C                     3.30971  -0.54034   0.00297 
 C                     2.80624   0.77271   0.00186 
 C                     1.40247   0.68057   0.00127 
 N                     1.0637   -0.6719    0.00198 
 B                    -0.3673   -1.24389  -0.00204 
 F                    -0.57778  -2.05212   1.13787 
 F                    -0.5739   -2.04535  -1.14731 
 N                    -1.34841  -0.05337   0.00013 
 C                    -2.72109  -0.14546   0.00118 
 C                    -3.44176  -1.45409   0.00029 
 C                    -3.25367   1.14441   0.00283 
 C                    -2.18      2.05077   0.00281 
 C                    -0.99245   1.29023   0.00091 
 C                     0.38472   1.68872   0.00021 
 C                     0.69529   3.08908  -0.00236 
 O                     1.83836   3.60133  -0.00299 
 H                     1.69755  -3.31134   0.87296 
 H                     1.72056  -3.30954  -0.88569 
 H                     3.25067  -3.28011   0.01355 
 H                     4.34917  -0.84224   0.00413 
 H                     3.36776   1.69296   0.00208 
 H                    -3.18767  -2.05258   0.88224 
 H                    -4.52144  -1.28741  -0.00573 
 H                    -3.17833  -2.05616  -0.8764 
 H                    -4.30946   1.3822    0.00395 
 H                    -2.24694   3.12946   0.00417 
 H                    -0.18063   3.76077  -0.00428 
 
 ITRead=  0  0  0  0  0  0  0  0  0  0  0  0  0  0  0  0  0  0  0  0
 ITRead=  0  0  0  0  0  0  0  0  0
 MicOpt= -1 -1 -1 -1 -1 -1 -1 -1 -1 -1 -1 -1 -1 -1 -1 -1 -1 -1 -1 -1
 MicOpt= -1 -1 -1 -1 -1 -1 -1 -1 -1
 NAtoms=     29 NQM=       29 NQMF=       0 NMMI=      0 NMMIF=      0
                NMic=       0 NMicF=      0.
                    Isotopes and Nuclear Properties:
 (Nuclear quadrupole moments (NQMom) in fm**2, nuclear magnetic moments (NMagM)
  in nuclear magnetons)

  Atom         1           2           3           4           5           6           7           8           9          10
 IAtWgt=          12          12          12          12          12          14          11          19          19          14
 AtmWgt=  12.0000000  12.0000000  12.0000000  12.0000000  12.0000000  14.0030740  11.0093053  18.9984033  18.9984033  14.0030740
 NucSpn=           0           0           0           0           0           2           3           1           1           2
 AtZEff=  -0.0000000  -0.0000000  -0.0000000  -0.0000000  -0.0000000  -0.0000000  -0.0000000  -0.0000000  -0.0000000  -0.0000000
 NQMom=    0.0000000   0.0000000   0.0000000   0.0000000   0.0000000   2.0440000   4.0590000   0.0000000   0.0000000   2.0440000
 NMagM=    0.0000000   0.0000000   0.0000000   0.0000000   0.0000000   0.4037610   2.6886370   2.6288670   2.6288670   0.4037610
 AtZNuc=   6.0000000   6.0000000   6.0000000   6.0000000   6.0000000   7.0000000   5.0000000   9.0000000   9.0000000   7.0000000

  Atom        11          12          13          14          15          16          17          18          19          20
 IAtWgt=          12          12          12          12          12          12          12          16           1           1
 AtmWgt=  12.0000000  12.0000000  12.0000000  12.0000000  12.0000000  12.0000000  12.0000000  15.9949146   1.0078250   1.0078250
 NucSpn=           0           0           0           0           0           0           0           0           1           1
 AtZEff=  -0.0000000  -0.0000000  -0.0000000  -0.0000000  -0.0000000  -0.0000000  -0.0000000  -0.0000000  -0.0000000  -0.0000000
 NQMom=    0.0000000   0.0000000   0.0000000   0.0000000   0.0000000   0.0000000   0.0000000   0.0000000   0.0000000   0.0000000
 NMagM=    0.0000000   0.0000000   0.0000000   0.0000000   0.0000000   0.0000000   0.0000000   0.0000000   2.7928460   2.7928460
 AtZNuc=   6.0000000   6.0000000   6.0000000   6.0000000   6.0000000   6.0000000   6.0000000   8.0000000   1.0000000   1.0000000

  Atom        21          22          23          24          25          26          27          28          29
 IAtWgt=           1           1           1           1           1           1           1           1           1
 AtmWgt=   1.0078250   1.0078250   1.0078250   1.0078250   1.0078250   1.0078250   1.0078250   1.0078250   1.0078250
 NucSpn=           1           1           1           1           1           1           1           1           1
 AtZEff=  -0.0000000  -0.0000000  -0.0000000  -0.0000000  -0.0000000  -0.0000000  -0.0000000  -0.0000000  -0.0000000
 NQMom=    0.0000000   0.0000000   0.0000000   0.0000000   0.0000000   0.0000000   0.0000000   0.0000000   0.0000000
 NMagM=    2.7928460   2.7928460   2.7928460   2.7928460   2.7928460   2.7928460   2.7928460   2.7928460   2.7928460
 AtZNuc=   1.0000000   1.0000000   1.0000000   1.0000000   1.0000000   1.0000000   1.0000000   1.0000000   1.0000000
 Leave Link  101 at Wed Nov  5 21:30:35 2025, MaxMem= 30870077440 cpu:               3.4 elap:               0.1
 (Enter /public/software/gauss/g16/l202.exe)
                          Input orientation:                          
 ---------------------------------------------------------------------
 Center     Atomic      Atomic             Coordinates (Angstroms)
 Number     Number       Type             X           Y           Z
 ---------------------------------------------------------------------
      1          6           0        2.223687   -2.907532    0.000923
      2          6           0        2.221268   -1.412921    0.002690
      3          6           0        3.309707   -0.540335    0.002966
      4          6           0        2.806236    0.772705    0.001857
      5          6           0        1.402474    0.680566    0.001271
      6          7           0        1.063695   -0.671897    0.001979
      7          5           0       -0.367296   -1.243894   -0.002040
      8          9           0       -0.577777   -2.052116    1.137868
      9          9           0       -0.573896   -2.045350   -1.147314
     10          7           0       -1.348413   -0.053367    0.000126
     11          6           0       -2.721090   -0.145455    0.001176
     12          6           0       -3.441763   -1.454093    0.000291
     13          6           0       -3.253672    1.144408    0.002830
     14          6           0       -2.180003    2.050772    0.002806
     15          6           0       -0.992452    1.290226    0.000909
     16          6           0        0.384720    1.688721    0.000214
     17          6           0        0.695290    3.089078   -0.002360
     18          8           0        1.838364    3.601334   -0.002991
     19          1           0        1.697545   -3.311344    0.872958
     20          1           0        1.720556   -3.309541   -0.885688
     21          1           0        3.250670   -3.280112    0.013549
     22          1           0        4.349170   -0.842244    0.004130
     23          1           0        3.367757    1.692956    0.002082
     24          1           0       -3.187669   -2.052576    0.882235
     25          1           0       -4.521441   -1.287408   -0.005733
     26          1           0       -3.178325   -2.056164   -0.876403
     27          1           0       -4.309464    1.382203    0.003953
     28          1           0       -2.246941    3.129456    0.004170
     29          1           0       -0.180629    3.760773   -0.004283
 ---------------------------------------------------------------------
                    Distance matrix (angstroms):
                    1          2          3          4          5
     1  C    0.000000
     2  C    1.494614   0.000000
     3  C    2.604432   1.395029   0.000000
     4  C    3.726058   2.262554   1.406257   0.000000
     5  C    3.680875   2.247913   2.264540   1.406783   0.000000
     6  N    2.518660   1.374443   2.249862   2.263476   1.394248
     7  B    3.079106   2.594081   3.743711   3.760052   2.614506
     8  F    3.142066   3.087370   4.322732   4.552107   3.561011
     9  F    3.144563   3.087947   4.320947   4.548332   3.557514
    10  N    4.572325   3.819819   4.683506   4.235978   2.847111
    11  C    5.663911   5.102291   6.043711   5.603066   4.205483
    12  C    5.848915   5.663181   6.813025   6.632957   5.293713
    13  C    6.813199   6.042756   6.776157   6.071297   4.679193
    14  C    6.631536   5.600746   6.070482   5.147430   3.835571
    15  C    5.288168   4.199405   4.675418   3.833779   2.471307
    16  C    4.950489   3.604594   3.677533   2.588982   1.432550
    17  C    6.188323   4.753591   4.473013   3.133958   2.510190
    18  O    6.520263   5.028857   4.395260   2.989639   2.953118
    19  H    1.095598   2.153059   3.321813   4.320587   4.096615
    20  H    1.095824   2.153392   3.314153   4.316384   4.099857
    21  H    1.092552   2.132179   2.740433   4.077129   4.370692
    22  H    2.963630   2.203098   1.082420   2.233542   3.316923
    23  H    4.740610   3.310726   2.234045   1.078039   2.210717
    24  H    5.548913   5.517187   6.728736   6.684622   5.414386
    25  H    6.936973   6.743882   7.866707   7.611765   6.242254
    26  H    5.538616   5.508373   6.720535   6.677485   5.407747
    27  H    7.815619   7.103744   7.857984   7.141756   5.754871
    28  H    7.512107   6.371662   6.659107   5.575740   4.394918
    29  H    7.088516   5.704057   5.539136   4.224920   3.463224
                    6          7          8          9         10
     6  N    0.000000
     7  B    1.541081   0.000000
     8  F    2.426866   1.413123   0.000000
     9  F    2.426716   1.413035   2.285195   0.000000
    10  N    2.490150   1.542709   2.425559   2.425797   0.000000
    11  C    3.821222   2.597484   3.085647   3.088539   1.375763
    12  C    4.572853   3.081645   3.139129   3.145035   2.518759
    13  C    4.683868   3.746355   4.320473   4.321873   2.250485
    14  C    4.234915   3.760419   4.548536   4.547590   2.262510
    15  C    2.842124   2.610094   3.554698   3.552418   1.389946
    16  C    2.456324   3.027501   4.026726   4.022319   2.457360
    17  C    3.778978   4.461360   5.417813   5.411479   3.748558
    18  O    4.342884   5.323643   6.253063   6.246080   4.848958
    19  H    2.850798   3.050170   2.613986   3.292975   4.544679
    20  H    2.859473   3.067060   3.310322   2.632705   4.561349
    21  H    3.403789   4.151639   4.174814   4.183246   5.618152
    22  H    3.289889   4.733541   5.198457   5.197102   5.751938
    23  H    3.301701   4.751392   5.557231   5.552717   5.029106
    24  H    4.555790   3.064378   2.622381   3.309219   2.856189
    25  H    5.618955   4.154375   4.176732   4.178612   3.404556
    26  H    4.547800   3.053879   3.289400   2.618503   2.850978
    27  H    5.752405   4.736783   5.196710   5.198846   3.290699
    28  H    5.040893   4.760178   5.560582   5.559102   3.307224
    29  H    4.604014   5.008147   5.937332   5.930619   3.988910
                   11         12         13         14         15
    11  C    0.000000
    12  C    1.493956   0.000000
    13  C    1.395490   2.605301   0.000000
    14  C    2.261900   3.725067   1.405084   0.000000
    15  C    2.247080   3.678371   2.265918   1.410217   0.000000
    16  C    3.606974   4.951692   3.678883   2.590153   1.433667
    17  C    4.704665   6.144560   4.401826   3.057027   2.466648
    18  O    5.901446   7.310068   5.653791   4.307151   3.654416
    19  H    5.505197   5.533843   6.717544   6.674191   5.401018
    20  H    5.525051   5.556724   6.735731   6.688553   5.413347
    21  H    6.744490   6.937087   7.866572   7.609905   6.236364
    22  H    7.104513   7.814922   7.858116   7.141403   5.751553
    23  H    6.360331   7.501565   6.644112   5.559287   4.378769
    24  H    2.151992   1.095706   3.316386   4.315814   4.095124
    25  H    2.131987   1.092486   2.742452   4.077481   4.370126
    26  H    2.151748   1.095665   3.319998   4.317010   4.092193
    27  H    2.203787   2.966057   1.082240   2.231948   3.318288
    28  H    3.309059   4.736722   2.225741   1.080760   2.226324
    29  H    4.659677   6.150597   4.035965   2.630903   2.600516
                   16         17         18         19         20
    16  C    0.000000
    17  C    1.434385   0.000000
    18  O    2.402328   1.252607   0.000000
    19  H    5.242694   6.537285   6.969378   0.000000
    20  H    5.248991   6.540165   6.968014   1.758797   0.000000
    21  H    5.736127   6.862711   7.024897   1.775319   1.775033
    22  H    4.703474   5.367138   5.103879   3.725914   3.713346
    23  H    2.983041   3.015171   2.445603   5.347060   5.341010
    24  H    5.247593   6.503575   7.616517   5.044789   5.366208
    25  H    5.738275   6.809400   8.021654   6.598803   6.620111
    26  H    5.242891   6.499412   7.611656   5.330089   5.056686
    27  H    4.704182   5.287819   6.536083   7.672595   7.691883
    28  H    3.000229   2.942515   4.112473   7.602478   7.615350
    29  H    2.147799   1.103817   2.025279   7.369663   7.374328
                   21         22         23         24         25
    21  H    0.000000
    22  H    2.673947   0.000000
    23  H    4.974459   2.718532   0.000000
    24  H    6.611631   7.683743   7.601137   0.000000
    25  H    8.023525   8.881780   8.433391   1.775646   0.000000
    26  H    6.604698   7.675423   7.594658   1.758666   1.775672
    27  H    8.882167   8.939805   7.683508   3.718536   2.678031
    28  H    8.444310   7.699551   5.795547   5.339422   4.968112
    29  H    7.832509   6.458089   4.106939   6.604788   6.657836
                   26         27         28         29
    26  H    0.000000
    27  H    3.725167   0.000000
    28  H    5.341679   2.703127   0.000000
    29  H    6.601782   4.764970   2.160620   0.000000
 Stoichiometry    C12H11BF2N2O(1-,2)
 Framework group  C1[X(C12H11BF2N2O)]
 Deg. of freedom    81
 Full point group                 C1      NOp   1
 Largest Abelian subgroup         C1      NOp   1
 Largest concise Abelian subgroup C1      NOp   1
                         Standard orientation:                         
 ---------------------------------------------------------------------
 Center     Atomic      Atomic             Coordinates (Angstroms)
 Number     Number       Type             X           Y           Z
 ---------------------------------------------------------------------
      1          6           0       -2.223688   -2.907531   -0.000923
      2          6           0       -2.221269   -1.412920   -0.002690
      3          6           0       -3.309707   -0.540334   -0.002966
      4          6           0       -2.806236    0.772706   -0.001857
      5          6           0       -1.402474    0.680566   -0.001271
      6          7           0       -1.063695   -0.671897   -0.001979
      7          5           0        0.367296   -1.243894    0.002040
      8          9           0        0.577776   -2.052116   -1.137868
      9          9           0        0.573895   -2.045350    1.147314
     10          7           0        1.348413   -0.053367   -0.000126
     11          6           0        2.721090   -0.145456   -0.001176
     12          6           0        3.441762   -1.454094   -0.000291
     13          6           0        3.253672    1.144407   -0.002830
     14          6           0        2.180004    2.050771   -0.002806
     15          6           0        0.992452    1.290226   -0.000909
     16          6           0       -0.384720    1.688721   -0.000214
     17          6           0       -0.695289    3.089078    0.002360
     18          8           0       -1.838363    3.601335    0.002991
     19          1           0       -1.697546   -3.311343   -0.872958
     20          1           0       -1.720557   -3.309540    0.885688
     21          1           0       -3.250671   -3.280111   -0.013549
     22          1           0       -4.349170   -0.842243   -0.004130
     23          1           0       -3.367757    1.692957   -0.002082
     24          1           0        3.187668   -2.052577   -0.882235
     25          1           0        4.521441   -1.287409    0.005733
     26          1           0        3.178324   -2.056165    0.876403
     27          1           0        4.309464    1.382202   -0.003953
     28          1           0        2.246942    3.129455   -0.004170
     29          1           0        0.180630    3.760773    0.004283
 ---------------------------------------------------------------------
 Rotational constants (GHZ):           0.5516762           0.4685975           0.2675204
 Leave Link  202 at Wed Nov  5 21:30:35 2025, MaxMem= 30870077440 cpu:               0.2 elap:               0.0
 (Enter /public/software/gauss/g16/l301.exe)
 Standard basis: def2TZVPP (5D, 7F)
 Ernie: Thresh=  0.10000D-02 Tol=  0.10000D-05 Strict=F.
 There are   813 symmetry adapted cartesian basis functions of A   symmetry.
 There are   712 symmetry adapted basis functions of A   symmetry.
   712 basis functions,  1105 primitive gaussians,   813 cartesian basis functions
    65 alpha electrons       64 beta electrons
       nuclear repulsion energy      1322.1402431868 Hartrees.
 IExCor= 4336 DFT=T Ex+Corr=M062X ExCW=0 ScaHFX=  0.540000
 ScaDFX=  1.000000  1.000000  1.000000  1.000000 ScalE2=  1.000000  1.000000
 IRadAn=      5 IRanWt=     -1 IRanGd=            0 ICorTp=0 IEmpDi=131
 NAtoms=   29 NActive=   29 NUniq=   29 SFac= 1.00D+00 NAtFMM=   60 NAOKFM=F Big=F
 Integral buffers will be    131072 words long.
 Raffenetti 2 integral format.
 Two-electron integral symmetry is turned on.
 R6Disp:  Grimme-D3 Dispersion energy=       -0.0015367534 Hartrees.
 Nuclear repulsion after empirical dispersion term =     1322.1387064334 Hartrees.
 ------------------------------------------------------------------------------
 Polarizable Continuum Model (PCM)
 =================================
 Model                : PCM.
 Atomic radii         : UFF (Universal Force Field).
 Polarization charges : Total charges.
 Charge compensation  : None.
 Solution method      : On-the-fly selection.
 Cavity type          : Scaled VdW (van der Waals Surface) (Alpha=1.100).
 Cavity algorithm     : GePol (No added spheres)
                        Default sphere list used, NSphG=   29.
                        Lebedev-Laikov grids with approx.  5.0 points / Ang**2.
                        Smoothing algorithm: York/Karplus (Gamma=1.0000).
                        Polarization charges: spherical gaussians, with
                                              point-specific exponents (IZeta= 3).
                        Self-potential: point-specific (ISelfS= 7).
                        Self-field    : sphere-specific E.n sum rule (ISelfD= 2).
 Solvent              : Water, Eps=  78.355300 Eps(inf)=   1.777849
 ------------------------------------------------------------------------------
 GePol: Number of generator spheres                  =      29
 GePol: Total number of spheres                      =      29
 GePol: Number of exposed spheres                    =      29 (100.00%)
 GePol: Number of points                             =    2271
 GePol: Average weight of points                     =       0.13
 GePol: Minimum weight of points                     =   0.42D-09
 GePol: Maximum weight of points                     =    0.20577
 GePol: Number of points with low weight             =     139
 GePol: Fraction of low-weight points (<1% of avg)   =       6.12%
 GePol: Cavity surface area                          =    287.345 Ang**2
 GePol: Cavity volume                                =    317.098 Ang**3
 Leave Link  301 at Wed Nov  5 21:30:35 2025, MaxMem= 30870077440 cpu:               3.6 elap:               0.1
 (Enter /public/software/gauss/g16/l302.exe)
 NPDir=0 NMtPBC=     1 NCelOv=     1 NCel=       1 NClECP=     1 NCelD=      1
         NCelK=      1 NCelE2=     1 NClLst=     1 CellRange=     0.0.
 One-electron integrals computed using PRISM.
 One-electron integral symmetry used in STVInt
   1 Symmetry operations used in ECPInt.
 ECPInt:  NShTT=   34980 NPrTT=  101005 LenC2=   31553 LenP2D=   67717.
 LDataN:  DoStor=T MaxTD1= 6 Len=  172
 NBasis=   712 RedAO= T EigKep=  1.19D-05  NBF=   712
 NBsUse=   712 1.00D-06 EigRej= -1.00D+00 NBFU=   712
 Precomputing XC quadrature grid using
 IXCGrd= 4 IRadAn=           5 IRanWt=          -1 IRanGd=           0 AccXCQ= 0.00D+00.
 Generated NRdTot=       0 NPtTot=           0 NUsed=           0 NTot=          32
 NSgBfM=   804   804   804   804   804 MxSgAt=    29 MxSgA2=    29.
 Leave Link  302 at Wed Nov  5 21:30:36 2025, MaxMem= 30870077440 cpu:              69.5 elap:               1.1
 (Enter /public/software/gauss/g16/l303.exe)
 DipDrv:  MaxL=1.
 Leave Link  303 at Wed Nov  5 21:30:37 2025, MaxMem= 30870077440 cpu:               8.5 elap:               0.2
 (Enter /public/software/gauss/g16/l401.exe)
 ExpMin= 6.06D-02 ExpMax= 3.55D+04 ExpMxC= 1.21D+03 IAcc=3 IRadAn=         5 AccDes= 0.00D+00
 Harris functional with IExCor= 1009 and IRadAn=       5 diagonalized for initial guess.
 HarFok:  IExCor= 1009 AccDes= 0.00D+00 IRadAn=         5 IDoV= 1 UseB2=F ITyADJ=14
 ICtDFT=  3500011 ScaDFX=  1.000000  1.000000  1.000000  1.000000
 FoFCou: FMM=F IPFlag=           0 FMFlag=      100000 FMFlg1=           0
         NFxFlg=           0 DoJE=T BraDBF=F KetDBF=T FulRan=T
         wScrn=  0.000000 ICntrl=       500 IOpCl=  0 I1Cent=   200000004 NGrid=           0
         NMat0=    1 NMatS0=      1 NMatT0=    0 NMatD0=    1 NMtDS0=    0 NMtDT0=    0
 Petite list used in FoFCou.
 Harris En= -873.101766972591    
 JPrj=0 DoOrth=F DoCkMO=F.
 Initial guess <Sx>= 0.0000 <Sy>= 0.0000 <Sz>= 0.5000 <S**2>= 0.7500 S= 0.5000
 Leave Link  401 at Wed Nov  5 21:30:39 2025, MaxMem= 30870077440 cpu:             139.2 elap:               2.2
 (Enter /public/software/gauss/g16/l502.exe)
 Integral symmetry usage will be decided dynamically.
 UHF open shell SCF:
 Using DIIS extrapolation, IDIIS=  1040.
 NGot= 30870077440 LenX= 30868696545 LenY= 30868034763
 Requested convergence on RMS density matrix=1.00D-08 within 128 cycles.
 Requested convergence on MAX density matrix=1.00D-06.
 Requested convergence on             energy=1.00D-06.
 No special actions if energy rises.
 Fock matrices will be formed incrementally for  20 cycles.

 Cycle   1  Pass 1  IDiag  1:
 FoFJK:  IHMeth= 1 ICntrl=       0 DoSepK=F KAlg= 0 I1Cent=           0 FoldK=F
 IRaf= 840000000 NMat=       1 IRICut=       1 DoRegI=T DoRafI=F ISym2E= 0 IDoP0=0 IntGTp=1.
 FoFCou: FMM=F IPFlag=           0 FMFlag=      100000 FMFlg1=           0
         NFxFlg=           0 DoJE=F BraDBF=F KetDBF=F FulRan=T
         wScrn=  0.000000 ICntrl=         0 IOpCl=  1 I1Cent=           0 NGrid=           0
         NMat0=    1 NMatS0=      1 NMatT0=    0 NMatD0=    1 NMtDS0=    0 NMtDT0=    0
 Symmetry not used in FoFCou.
 Inv3:  Mode=1 IEnd=    15472323.
 Iteration    1 A*A^-1 deviation from unit magnitude is 5.11D-15 for    308.
 Iteration    1 A*A^-1 deviation from orthogonality  is 4.23D-15 for   2248    920.
 Iteration    1 A^-1*A deviation from unit magnitude is 5.11D-15 for    310.
 Iteration    1 A^-1*A deviation from orthogonality  is 3.42D-14 for   2250   2240.
 E= -873.056429353532    
 DIIS: error= 2.56D-02 at cycle   1 NSaved=   1.
 NSaved= 1 IEnMin= 1 EnMin= -873.056429353532     IErMin= 1 ErrMin= 2.56D-02
 ErrMax= 2.56D-02  0.00D+00 EMaxC= 1.00D-01 BMatC= 2.40D+00 BMatP= 2.40D+00
 IDIUse=3 WtCom= 7.44D-01 WtEn= 2.56D-01
 Coeff-Com:  0.100D+01
 Coeff-En:   0.100D+01
 Coeff:      0.100D+01
 Gap=     0.205 Goal=   None    Shift=    0.000
 Gap=     0.156 Goal=   None    Shift=    0.000
 GapD=    0.156 DampG=1.000 DampE=0.500 DampFc=0.5000 IDamp=-1.
 Damping current iteration by 5.00D-01
 RMSDP=3.60D-03 MaxDP=5.10D-01              OVMax= 1.77D-01

 Cycle   2  Pass 1  IDiag  1:
 RMSU=  1.80D-03    CP:  9.99D-01
 E= -873.288005040271     Delta-E=       -0.231575686739 Rises=F Damp=T
 DIIS: error= 6.25D-03 at cycle   2 NSaved=   2.
 NSaved= 2 IEnMin= 2 EnMin= -873.288005040271     IErMin= 2 ErrMin= 6.25D-03
 ErrMax= 6.25D-03  0.00D+00 EMaxC= 1.00D-01 BMatC= 2.14D-01 BMatP= 2.40D+00
 IDIUse=3 WtCom= 9.37D-01 WtEn= 6.25D-02
 Coeff-Com: -0.101D+00 0.110D+01
 Coeff-En:   0.000D+00 0.100D+01
 Coeff:     -0.947D-01 0.109D+01
 Gap=     0.220 Goal=   None    Shift=    0.000
 Gap=     0.152 Goal=   None    Shift=    0.000
 RMSDP=1.09D-03 MaxDP=1.43D-01 DE=-2.32D-01 OVMax= 1.00D-01

 Cycle   3  Pass 1  IDiag  1:
 RMSU=  9.12D-04    CP:  9.74D-01  6.83D-01
 E= -873.492852181314     Delta-E=       -0.204847141043 Rises=F Damp=F
 DIIS: error= 6.15D-03 at cycle   3 NSaved=   3.
 NSaved= 3 IEnMin= 3 EnMin= -873.492852181314     IErMin= 3 ErrMin= 6.15D-03
 ErrMax= 6.15D-03  0.00D+00 EMaxC= 1.00D-01 BMatC= 1.10D-01 BMatP= 2.14D-01
 IDIUse=3 WtCom= 9.39D-01 WtEn= 6.15D-02
 Coeff-Com: -0.111D+00 0.485D+00 0.625D+00
 Coeff-En:   0.000D+00 0.000D+00 0.100D+01
 Coeff:     -0.104D+00 0.456D+00 0.648D+00
 Gap=     0.220 Goal=   None    Shift=    0.000
 Gap=     0.156 Goal=   None    Shift=    0.000
 RMSDP=4.20D-04 MaxDP=4.67D-02 DE=-2.05D-01 OVMax= 5.91D-02

 Cycle   4  Pass 1  IDiag  1:
 RMSU=  2.79D-04    CP:  9.80D-01  8.47D-01  8.85D-01
 E= -873.509691737562     Delta-E=       -0.016839556248 Rises=F Damp=F
 DIIS: error= 2.65D-03 at cycle   4 NSaved=   4.
 NSaved= 4 IEnMin= 4 EnMin= -873.509691737562     IErMin= 4 ErrMin= 2.65D-03
 ErrMax= 2.65D-03  0.00D+00 EMaxC= 1.00D-01 BMatC= 2.44D-02 BMatP= 1.10D-01
 IDIUse=3 WtCom= 9.73D-01 WtEn= 2.65D-02
 Coeff-Com: -0.333D-01 0.839D-01 0.351D+00 0.598D+00
 Coeff-En:   0.000D+00 0.000D+00 0.188D+00 0.812D+00
 Coeff:     -0.324D-01 0.817D-01 0.347D+00 0.604D+00
 Gap=     0.219 Goal=   None    Shift=    0.000
 Gap=     0.157 Goal=   None    Shift=    0.000
 RMSDP=1.91D-04 MaxDP=2.09D-02 DE=-1.68D-02 OVMax= 1.98D-02

 Cycle   5  Pass 1  IDiag  1:
 RMSU=  6.58D-05    CP:  9.76D-01  7.69D-01  9.50D-01  6.67D-01
 E= -873.514683041695     Delta-E=       -0.004991304133 Rises=F Damp=F
 DIIS: error= 4.70D-04 at cycle   5 NSaved=   5.
 NSaved= 5 IEnMin= 5 EnMin= -873.514683041695     IErMin= 5 ErrMin= 4.70D-04
 ErrMax= 4.70D-04  0.00D+00 EMaxC= 1.00D-01 BMatC= 5.74D-04 BMatP= 2.44D-02
 IDIUse=3 WtCom= 9.95D-01 WtEn= 4.70D-03
 Coeff-Com: -0.865D-02 0.152D-01 0.118D+00 0.246D+00 0.630D+00
 Coeff-En:   0.000D+00 0.000D+00 0.000D+00 0.000D+00 0.100D+01
 Coeff:     -0.861D-02 0.151D-01 0.117D+00 0.245D+00 0.631D+00
 Gap=     0.220 Goal=   None    Shift=    0.000
 Gap=     0.158 Goal=   None    Shift=    0.000
 RMSDP=2.29D-05 MaxDP=2.12D-03 DE=-4.99D-03 OVMax= 6.19D-03

 Cycle   6  Pass 1  IDiag  1:
 RMSU=  1.85D-05    CP:  9.76D-01  7.75D-01  9.49D-01  6.94D-01  9.68D-01
 E= -873.514828865565     Delta-E=       -0.000145823870 Rises=F Damp=F
 DIIS: error= 2.04D-04 at cycle   6 NSaved=   6.
 NSaved= 6 IEnMin= 6 EnMin= -873.514828865565     IErMin= 6 ErrMin= 2.04D-04
 ErrMax= 2.04D-04  0.00D+00 EMaxC= 1.00D-01 BMatC= 8.27D-05 BMatP= 5.74D-04
 IDIUse=3 WtCom= 9.98D-01 WtEn= 2.04D-03
 Coeff-Com:  0.208D-02-0.663D-02-0.119D-01-0.815D-02 0.211D+00 0.813D+00
 Coeff-En:   0.000D+00 0.000D+00 0.000D+00 0.000D+00 0.000D+00 0.100D+01
 Coeff:      0.208D-02-0.662D-02-0.119D-01-0.814D-02 0.211D+00 0.814D+00
 Gap=     0.220 Goal=   None    Shift=    0.000
 Gap=     0.159 Goal=   None    Shift=    0.000
 RMSDP=1.91D-05 MaxDP=2.24D-03 DE=-1.46D-04 OVMax= 5.37D-03

 Cycle   7  Pass 1  IDiag  1:
 RMSU=  1.04D-05    CP:  9.76D-01  7.68D-01  9.55D-01  6.96D-01  1.09D+00
                    CP:  1.21D+00
 E= -873.514880470915     Delta-E=       -0.000051605350 Rises=F Damp=F
 DIIS: error= 1.44D-04 at cycle   7 NSaved=   7.
 NSaved= 7 IEnMin= 7 EnMin= -873.514880470915     IErMin= 7 ErrMin= 1.44D-04
 ErrMax= 1.44D-04  0.00D+00 EMaxC= 1.00D-01 BMatC= 2.13D-05 BMatP= 8.27D-05
 IDIUse=3 WtCom= 9.99D-01 WtEn= 1.44D-03
 Coeff-Com:  0.292D-02-0.617D-02-0.329D-01-0.669D-01-0.106D+00 0.190D+00
 Coeff-Com:  0.102D+01
 Coeff-En:   0.000D+00 0.000D+00 0.000D+00 0.000D+00 0.000D+00 0.000D+00
 Coeff-En:   0.100D+01
 Coeff:      0.291D-02-0.616D-02-0.329D-01-0.668D-01-0.106D+00 0.190D+00
 Coeff:      0.102D+01
 Gap=     0.221 Goal=   None    Shift=    0.000
 Gap=     0.160 Goal=   None    Shift=    0.000
 RMSDP=1.38D-05 MaxDP=1.70D-03 DE=-5.16D-05 OVMax= 4.57D-03

 Cycle   8  Pass 1  IDiag  1:
 RMSU=  4.80D-06    CP:  9.76D-01  7.64D-01  9.58D-01  7.03D-01  1.17D+00
                    CP:  1.51D+00  1.55D+00
 E= -873.514903989712     Delta-E=       -0.000023518798 Rises=F Damp=F
 DIIS: error= 7.49D-05 at cycle   8 NSaved=   8.
 NSaved= 8 IEnMin= 8 EnMin= -873.514903989712     IErMin= 8 ErrMin= 7.49D-05
 ErrMax= 7.49D-05  0.00D+00 EMaxC= 1.00D-01 BMatC= 8.45D-06 BMatP= 2.13D-05
 IDIUse=1 WtCom= 1.00D+00 WtEn= 0.00D+00
 Coeff-Com:  0.770D-03-0.924D-03-0.105D-01-0.281D-01-0.108D+00-0.153D+00
 Coeff-Com:  0.496D+00 0.804D+00
 Coeff:      0.770D-03-0.924D-03-0.105D-01-0.281D-01-0.108D+00-0.153D+00
 Coeff:      0.496D+00 0.804D+00
 Gap=     0.221 Goal=   None    Shift=    0.000
 Gap=     0.161 Goal=   None    Shift=    0.000
 RMSDP=6.28D-06 MaxDP=6.24D-04 DE=-2.35D-05 OVMax= 2.52D-03

 Cycle   9  Pass 1  IDiag  1:
 RMSU=  2.73D-06    CP:  9.76D-01  7.62D-01  9.60D-01  7.02D-01  1.20D+00
                    CP:  1.65D+00  1.83D+00  1.29D+00
 E= -873.514910448093     Delta-E=       -0.000006458381 Rises=F Damp=F
 DIIS: error= 3.37D-05 at cycle   9 NSaved=   9.
 NSaved= 9 IEnMin= 9 EnMin= -873.514910448093     IErMin= 9 ErrMin= 3.37D-05
 ErrMax= 3.37D-05  0.00D+00 EMaxC= 1.00D-01 BMatC= 1.33D-06 BMatP= 8.45D-06
 IDIUse=1 WtCom= 1.00D+00 WtEn= 0.00D+00
 Coeff-Com: -0.470D-03 0.123D-02 0.508D-02 0.715D-02-0.125D-01-0.105D+00
 Coeff-Com: -0.901D-01 0.253D+00 0.942D+00
 Coeff:     -0.470D-03 0.123D-02 0.508D-02 0.715D-02-0.125D-01-0.105D+00
 Coeff:     -0.901D-01 0.253D+00 0.942D+00
 Gap=     0.221 Goal=   None    Shift=    0.000
 Gap=     0.161 Goal=   None    Shift=    0.000
 RMSDP=2.95D-06 MaxDP=3.58D-04 DE=-6.46D-06 OVMax= 1.02D-03

 Cycle  10  Pass 1  IDiag  1:
 RMSU=  1.19D-06    CP:  9.76D-01  7.61D-01  9.60D-01  7.01D-01  1.21D+00
                    CP:  1.69D+00  1.99D+00  1.57D+00  1.30D+00
 E= -873.514911686841     Delta-E=       -0.000001238748 Rises=F Damp=F
 DIIS: error= 1.32D-05 at cycle  10 NSaved=  10.
 NSaved=10 IEnMin=10 EnMin= -873.514911686841     IErMin=10 ErrMin= 1.32D-05
 ErrMax= 1.32D-05  0.00D+00 EMaxC= 1.00D-01 BMatC= 2.39D-07 BMatP= 1.33D-06
 IDIUse=1 WtCom= 1.00D+00 WtEn= 0.00D+00
 Coeff-Com: -0.263D-03 0.534D-03 0.328D-02 0.670D-02 0.125D-01-0.835D-02
 Coeff-Com: -0.977D-01-0.648D-01 0.302D+00 0.846D+00
 Coeff:     -0.263D-03 0.534D-03 0.328D-02 0.670D-02 0.125D-01-0.835D-02
 Coeff:     -0.977D-01-0.648D-01 0.302D+00 0.846D+00
 Gap=     0.221 Goal=   None    Shift=    0.000
 Gap=     0.161 Goal=   None    Shift=    0.000
 RMSDP=1.06D-06 MaxDP=1.24D-04 DE=-1.24D-06 OVMax= 3.39D-04

 Cycle  11  Pass 1  IDiag  1:
 RMSU=  5.45D-07    CP:  9.76D-01  7.61D-01  9.60D-01  7.00D-01  1.21D+00
                    CP:  1.70D+00  2.02D+00  1.64D+00  1.46D+00  1.23D+00
 E= -873.514911845611     Delta-E=       -0.000000158770 Rises=F Damp=F
 DIIS: error= 8.36D-06 at cycle  11 NSaved=  11.
 NSaved=11 IEnMin=11 EnMin= -873.514911845611     IErMin=11 ErrMin= 8.36D-06
 ErrMax= 8.36D-06  0.00D+00 EMaxC= 1.00D-01 BMatC= 5.85D-08 BMatP= 2.39D-07
 IDIUse=1 WtCom= 1.00D+00 WtEn= 0.00D+00
 Coeff-Com: -0.135D-05-0.462D-04 0.255D-03 0.100D-02 0.678D-02 0.160D-01
 Coeff-Com: -0.160D-01-0.703D-01-0.464D-01 0.313D+00 0.796D+00
 Coeff:     -0.135D-05-0.462D-04 0.255D-03 0.100D-02 0.678D-02 0.160D-01
 Coeff:     -0.160D-01-0.703D-01-0.464D-01 0.313D+00 0.796D+00
 Gap=     0.221 Goal=   None    Shift=    0.000
 Gap=     0.161 Goal=   None    Shift=    0.000
 RMSDP=4.76D-07 MaxDP=7.79D-05 DE=-1.59D-07 OVMax= 1.27D-04

 Cycle  12  Pass 1  IDiag  1:
 RMSU=  2.56D-07    CP:  9.76D-01  7.61D-01  9.60D-01  7.00D-01  1.21D+00
                    CP:  1.70D+00  2.01D+00  1.64D+00  1.53D+00  1.39D+00
                    CP:  1.25D+00
 E= -873.514911883541     Delta-E=       -0.000000037930 Rises=F Damp=F
 DIIS: error= 3.36D-06 at cycle  12 NSaved=  12.
 NSaved=12 IEnMin=12 EnMin= -873.514911883541     IErMin=12 ErrMin= 3.36D-06
 ErrMax= 3.36D-06  0.00D+00 EMaxC= 1.00D-01 BMatC= 1.70D-08 BMatP= 5.85D-08
 IDIUse=1 WtCom= 1.00D+00 WtEn= 0.00D+00
 Coeff-Com:  0.845D-04-0.189D-03-0.934D-03-0.179D-02-0.110D-02 0.927D-02
 Coeff-Com:  0.244D-01-0.110D-01-0.121D+00-0.155D+00 0.317D+00 0.941D+00
 Coeff:      0.845D-04-0.189D-03-0.934D-03-0.179D-02-0.110D-02 0.927D-02
 Coeff:      0.244D-01-0.110D-01-0.121D+00-0.155D+00 0.317D+00 0.941D+00
 Gap=     0.221 Goal=   None    Shift=    0.000
 Gap=     0.161 Goal=   None    Shift=    0.000
 RMSDP=3.07D-07 MaxDP=3.61D-05 DE=-3.79D-08 OVMax= 9.60D-05

 Cycle  13  Pass 1  IDiag  1:
 RMSU=  1.45D-07    CP:  9.76D-01  7.61D-01  9.60D-01  7.00D-01  1.21D+00
                    CP:  1.70D+00  2.01D+00  1.65D+00  1.55D+00  1.50D+00
                    CP:  1.57D+00  1.37D+00
 E= -873.514911898328     Delta-E=       -0.000000014787 Rises=F Damp=F
 DIIS: error= 1.32D-06 at cycle  13 NSaved=  13.
 NSaved=13 IEnMin=13 EnMin= -873.514911898328     IErMin=13 ErrMin= 1.32D-06
 ErrMax= 1.32D-06  0.00D+00 EMaxC= 1.00D-01 BMatC= 2.44D-09 BMatP= 1.70D-08
 IDIUse=1 WtCom= 1.00D+00 WtEn= 0.00D+00
 Coeff-Com:  0.172D-04-0.300D-04-0.248D-03-0.615D-03-0.151D-02-0.107D-02
 Coeff-Com:  0.922D-02 0.102D-01-0.148D-01-0.911D-01-0.915D-01 0.226D+00
 Coeff-Com:  0.956D+00
 Coeff:      0.172D-04-0.300D-04-0.248D-03-0.615D-03-0.151D-02-0.107D-02
 Coeff:      0.922D-02 0.102D-01-0.148D-01-0.911D-01-0.915D-01 0.226D+00
 Coeff:      0.956D+00
 Gap=     0.221 Goal=   None    Shift=    0.000
 Gap=     0.161 Goal=   None    Shift=    0.000
 RMSDP=1.21D-07 MaxDP=1.13D-05 DE=-1.48D-08 OVMax= 3.86D-05

 Cycle  14  Pass 1  IDiag  1:
 RMSU=  5.69D-08    CP:  9.76D-01  7.61D-01  9.60D-01  7.00D-01  1.21D+00
                    CP:  1.70D+00  2.01D+00  1.65D+00  1.55D+00  1.53D+00
                    CP:  1.68D+00  1.61D+00  1.36D+00
 E= -873.514911900666     Delta-E=       -0.000000002338 Rises=F Damp=F
 DIIS: error= 6.03D-07 at cycle  14 NSaved=  14.
 NSaved=14 IEnMin=14 EnMin= -873.514911900666     IErMin=14 ErrMin= 6.03D-07
 ErrMax= 6.03D-07  0.00D+00 EMaxC= 1.00D-01 BMatC= 6.45D-10 BMatP= 2.44D-09
 IDIUse=1 WtCom= 1.00D+00 WtEn= 0.00D+00
 Coeff-Com: -0.113D-04 0.272D-04 0.101D-03 0.153D-03-0.298D-03-0.221D-02
 Coeff-Com: -0.157D-02 0.446D-02 0.191D-01 0.957D-03-0.106D+00-0.101D+00
 Coeff-Com:  0.365D+00 0.821D+00
 Coeff:     -0.113D-04 0.272D-04 0.101D-03 0.153D-03-0.298D-03-0.221D-02
 Coeff:     -0.157D-02 0.446D-02 0.191D-01 0.957D-03-0.106D+00-0.101D+00
 Coeff:      0.365D+00 0.821D+00
 Gap=     0.221 Goal=   None    Shift=    0.000
 Gap=     0.161 Goal=   None    Shift=    0.000
 RMSDP=5.75D-08 MaxDP=5.35D-06 DE=-2.34D-09 OVMax= 1.92D-05

 Cycle  15  Pass 1  IDiag  1:
 RMSU=  2.29D-08    CP:  9.76D-01  7.61D-01  9.60D-01  7.00D-01  1.21D+00
                    CP:  1.70D+00  2.01D+00  1.65D+00  1.55D+00  1.54D+00
                    CP:  1.71D+00  1.72D+00  1.57D+00  1.36D+00
 E= -873.514911901202     Delta-E=       -0.000000000535 Rises=F Damp=F
 DIIS: error= 3.47D-07 at cycle  15 NSaved=  15.
 NSaved=15 IEnMin=15 EnMin= -873.514911901202     IErMin=15 ErrMin= 3.47D-07
 ErrMax= 3.47D-07  0.00D+00 EMaxC= 1.00D-01 BMatC= 8.32D-11 BMatP= 6.45D-10
 IDIUse=1 WtCom= 1.00D+00 WtEn= 0.00D+00
 Coeff-Com: -0.467D-05 0.977D-05 0.582D-04 0.138D-03 0.159D-03-0.241D-03
 Coeff-Com: -0.163D-02-0.114D-02 0.604D-02 0.185D-01-0.796D-02-0.573D-01
 Coeff-Com: -0.874D-01 0.802D-01 0.105D+01
 Coeff:     -0.467D-05 0.977D-05 0.582D-04 0.138D-03 0.159D-03-0.241D-03
 Coeff:     -0.163D-02-0.114D-02 0.604D-02 0.185D-01-0.796D-02-0.573D-01
 Coeff:     -0.874D-01 0.802D-01 0.105D+01
 Gap=     0.221 Goal=   None    Shift=    0.000
 Gap=     0.161 Goal=   None    Shift=    0.000
 RMSDP=3.31D-08 MaxDP=3.21D-06 DE=-5.35D-10 OVMax= 1.35D-05

 Cycle  16  Pass 1  IDiag  1:
 RMSU=  1.21D-08    CP:  9.76D-01  7.61D-01  9.60D-01  7.00D-01  1.21D+00
                    CP:  1.70D+00  2.01D+00  1.65D+00  1.55D+00  1.54D+00
                    CP:  1.71D+00  1.77D+00  1.66D+00  1.62D+00  1.53D+00
 E= -873.514911901344     Delta-E=       -0.000000000142 Rises=F Damp=F
 DIIS: error= 1.87D-07 at cycle  16 NSaved=  16.
 NSaved=16 IEnMin=16 EnMin= -873.514911901344     IErMin=16 ErrMin= 1.87D-07
 ErrMax= 1.87D-07  0.00D+00 EMaxC= 1.00D-01 BMatC= 3.10D-11 BMatP= 8.32D-11
 IDIUse=1 WtCom= 1.00D+00 WtEn= 0.00D+00
 Coeff-Com:  0.578D-06-0.187D-05 0.971D-06 0.246D-04 0.119D-03 0.362D-03
 Coeff-Com: -0.202D-03-0.147D-02-0.185D-02 0.615D-02 0.179D-01 0.102D-02
 Coeff-Com: -0.910D-01-0.178D+00 0.392D+00 0.856D+00
 Coeff:      0.578D-06-0.187D-05 0.971D-06 0.246D-04 0.119D-03 0.362D-03
 Coeff:     -0.202D-03-0.147D-02-0.185D-02 0.615D-02 0.179D-01 0.102D-02
 Coeff:     -0.910D-01-0.178D+00 0.392D+00 0.856D+00
 Gap=     0.221 Goal=   None    Shift=    0.000
 Gap=     0.161 Goal=   None    Shift=    0.000
 RMSDP=1.41D-08 MaxDP=1.15D-06 DE=-1.42D-10 OVMax= 7.20D-06

 Cycle  17  Pass 1  IDiag  1:
 RMSU=  5.02D-09    CP:  9.76D-01  7.61D-01  9.60D-01  7.00D-01  1.21D+00
                    CP:  1.70D+00  2.01D+00  1.65D+00  1.56D+00  1.54D+00
                    CP:  1.72D+00  1.78D+00  1.69D+00  1.72D+00  1.85D+00
                    CP:  1.43D+00
 E= -873.514911901371     Delta-E=       -0.000000000027 Rises=F Damp=F
 DIIS: error= 8.99D-08 at cycle  17 NSaved=  17.
 NSaved=17 IEnMin=17 EnMin= -873.514911901371     IErMin=17 ErrMin= 8.99D-08
 ErrMax= 8.99D-08  0.00D+00 EMaxC= 1.00D-01 BMatC= 5.71D-12 BMatP= 3.10D-11
 IDIUse=1 WtCom= 1.00D+00 WtEn= 0.00D+00
 Coeff-Com:  0.141D-05-0.315D-05-0.146D-04-0.260D-04-0.803D-05 0.149D-03
 Coeff-Com:  0.385D-03-0.161D-03-0.198D-02-0.293D-02 0.743D-02 0.131D-01
 Coeff-Com: -0.158D-02-0.968D-01-0.135D+00 0.253D+00 0.965D+00
 Coeff:      0.141D-05-0.315D-05-0.146D-04-0.260D-04-0.803D-05 0.149D-03
 Coeff:      0.385D-03-0.161D-03-0.198D-02-0.293D-02 0.743D-02 0.131D-01
 Coeff:     -0.158D-02-0.968D-01-0.135D+00 0.253D+00 0.965D+00
 Gap=     0.221 Goal=   None    Shift=    0.000
 Gap=     0.161 Goal=   None    Shift=    0.000
 RMSDP=9.54D-09 MaxDP=9.52D-07 DE=-2.73D-11 OVMax= 3.78D-06

 Error on total polarization charges =  0.01827
 SCF Done:  E(UM062X) =  -873.514911901     A.U. after   17 cycles
            NFock= 17  Conv=0.95D-08     -V/T= 2.0051
 <Sx>= 0.0000 <Sy>= 0.0000 <Sz>= 0.5000 <S**2>= 0.7695 S= 0.5097
 <L.S>= 0.000000000000E+00
 KE= 8.690404182554D+02 PE=-4.708278307743D+03 EE= 1.643584271153D+03
 Annihilation of the first spin contaminant:
 S**2 before annihilation     0.7695,   after     0.7503
 Leave Link  502 at Wed Nov  5 21:35:15 2025, MaxMem= 30870077440 cpu:           17449.4 elap:             276.0
 (Enter /public/software/gauss/g16/l601.exe)
 Copying SCF densities to generalized density rwf, IOpCl= 1 IROHF=0.

 **********************************************************************

            Population analysis using the SCF density.

 **********************************************************************

 Orbital symmetries:
 Alpha Orbitals:
       Occupied  (A) (A) (A) (A) (A) (A) (A) (A) (A) (A) (A) (A)
                 (A) (A) (A) (A) (A) (A) (A) (A) (A) (A) (A) (A)
                 (A) (A) (A) (A) (A) (A) (A) (A) (A) (A) (A) (A)
                 (A) (A) (A) (A) (A) (A) (A) (A) (A) (A) (A) (A)
                 (A) (A) (A) (A) (A) (A) (A) (A) (A) (A) (A) (A)
                 (A) (A) (A) (A) (A)
       Virtual   (A) (A) (A) (A) (A) (A) (A) (A) (A) (A) (A) (A)
                 (A) (A) (A) (A) (A) (A) (A) (A) (A) (A) (A) (A)
                 (A) (A) (A) (A) (A) (A) (A) (A) (A) (A) (A) (A)
                 (A) (A) (A) (A) (A) (A) (A) (A) (A) (A) (A) (A)
                 (A) (A) (A) (A) (A) (A) (A) (A) (A) (A) (A) (A)
                 (A) (A) (A) (A) (A) (A) (A) (A) (A) (A) (A) (A)
                 (A) (A) (A) (A) (A) (A) (A) (A) (A) (A) (A) (A)
                 (A) (A) (A) (A) (A) (A) (A) (A) (A) (A) (A) (A)
                 (A) (A) (A) (A) (A) (A) (A) (A) (A) (A) (A) (A)
                 (A) (A) (A) (A) (A) (A) (A) (A) (A) (A) (A) (A)
                 (A) (A) (A) (A) (A) (A) (A) (A) (A) (A) (A) (A)
                 (A) (A) (A) (A) (A) (A) (A) (A) (A) (A) (A) (A)
                 (A) (A) (A) (A) (A) (A) (A) (A) (A) (A) (A) (A)
                 (A) (A) (A) (A) (A) (A) (A) (A) (A) (A) (A) (A)
                 (A) (A) (A) (A) (A) (A) (A) (A) (A) (A) (A) (A)
                 (A) (A) (A) (A) (A) (A) (A) (A) (A) (A) (A) (A)
                 (A) (A) (A) (A) (A) (A) (A) (A) (A) (A) (A) (A)
                 (A) (A) (A) (A) (A) (A) (A) (A) (A) (A) (A) (A)
                 (A) (A) (A) (A) (A) (A) (A) (A) (A) (A) (A) (A)
                 (A) (A) (A) (A) (A) (A) (A) (A) (A) (A) (A) (A)
                 (A) (A) (A) (A) (A) (A) (A) (A) (A) (A) (A) (A)
                 (A) (A) (A) (A) (A) (A) (A) (A) (A) (A) (A) (A)
                 (A) (A) (A) (A) (A) (A) (A) (A) (A) (A) (A) (A)
                 (A) (A) (A) (A) (A) (A) (A) (A) (A) (A) (A) (A)
                 (A) (A) (A) (A) (A) (A) (A) (A) (A) (A) (A) (A)
                 (A) (A) (A) (A) (A) (A) (A) (A) (A) (A) (A) (A)
                 (A) (A) (A) (A) (A) (A) (A) (A) (A) (A) (A) (A)
                 (A) (A) (A) (A) (A) (A) (A) (A) (A) (A) (A) (A)
                 (A) (A) (A) (A) (A) (A) (A) (A) (A) (A) (A) (A)
                 (A) (A) (A) (A) (A) (A) (A) (A) (A) (A) (A) (A)
                 (A) (A) (A) (A) (A) (A) (A) (A) (A) (A) (A) (A)
                 (A) (A) (A) (A) (A) (A) (A) (A) (A) (A) (A) (A)
                 (A) (A) (A) (A) (A) (A) (A) (A) (A) (A) (A) (A)
                 (A) (A) (A) (A) (A) (A) (A) (A) (A) (A) (A) (A)
                 (A) (A) (A) (A) (A) (A) (A) (A) (A) (A) (A) (A)
                 (A) (A) (A) (A) (A) (A) (A) (A) (A) (A) (A) (A)
                 (A) (A) (A) (A) (A) (A) (A) (A) (A) (A) (A) (A)
                 (A) (A) (A) (A) (A) (A) (A) (A) (A) (A) (A) (A)
                 (A) (A) (A) (A) (A) (A) (A) (A) (A) (A) (A) (A)
                 (A) (A) (A) (A) (A) (A) (A) (A) (A) (A) (A) (A)
                 (A) (A) (A) (A) (A) (A) (A) (A) (A) (A) (A) (A)
                 (A) (A) (A) (A) (A) (A) (A) (A) (A) (A) (A) (A)
                 (A) (A) (A) (A) (A) (A) (A) (A) (A) (A) (A) (A)
                 (A) (A) (A) (A) (A) (A) (A) (A) (A) (A) (A) (A)
                 (A) (A) (A) (A) (A) (A) (A) (A) (A) (A) (A) (A)
                 (A) (A) (A) (A) (A) (A) (A) (A) (A) (A) (A) (A)
                 (A) (A) (A) (A) (A) (A) (A) (A) (A) (A) (A) (A)
                 (A) (A) (A) (A) (A) (A) (A) (A) (A) (A) (A) (A)
                 (A) (A) (A) (A) (A) (A) (A) (A) (A) (A) (A) (A)
                 (A) (A) (A) (A) (A) (A) (A) (A) (A) (A) (A) (A)
                 (A) (A) (A) (A) (A) (A) (A) (A) (A) (A) (A) (A)
                 (A) (A) (A) (A) (A) (A) (A) (A) (A) (A) (A) (A)
                 (A) (A) (A) (A) (A) (A) (A) (A) (A) (A) (A) (A)
                 (A) (A) (A) (A) (A) (A) (A) (A) (A) (A) (A)
 Beta  Orbitals:
       Occupied  (A) (A) (A) (A) (A) (A) (A) (A) (A) (A) (A) (A)
                 (A) (A) (A) (A) (A) (A) (A) (A) (A) (A) (A) (A)
                 (A) (A) (A) (A) (A) (A) (A) (A) (A) (A) (A) (A)
                 (A) (A) (A) (A) (A) (A) (A) (A) (A) (A) (A) (A)
                 (A) (A) (A) (A) (A) (A) (A) (A) (A) (A) (A) (A)
                 (A) (A) (A) (A)
       Virtual   (A) (A) (A) (A) (A) (A) (A) (A) (A) (A) (A) (A)
                 (A) (A) (A) (A) (A) (A) (A) (A) (A) (A) (A) (A)
                 (A) (A) (A) (A) (A) (A) (A) (A) (A) (A) (A) (A)
                 (A) (A) (A) (A) (A) (A) (A) (A) (A) (A) (A) (A)
                 (A) (A) (A) (A) (A) (A) (A) (A) (A) (A) (A) (A)
                 (A) (A) (A) (A) (A) (A) (A) (A) (A) (A) (A) (A)
                 (A) (A) (A) (A) (A) (A) (A) (A) (A) (A) (A) (A)
                 (A) (A) (A) (A) (A) (A) (A) (A) (A) (A) (A) (A)
                 (A) (A) (A) (A) (A) (A) (A) (A) (A) (A) (A) (A)
                 (A) (A) (A) (A) (A) (A) (A) (A) (A) (A) (A) (A)
                 (A) (A) (A) (A) (A) (A) (A) (A) (A) (A) (A) (A)
                 (A) (A) (A) (A) (A) (A) (A) (A) (A) (A) (A) (A)
                 (A) (A) (A) (A) (A) (A) (A) (A) (A) (A) (A) (A)
                 (A) (A) (A) (A) (A) (A) (A) (A) (A) (A) (A) (A)
                 (A) (A) (A) (A) (A) (A) (A) (A) (A) (A) (A) (A)
                 (A) (A) (A) (A) (A) (A) (A) (A) (A) (A) (A) (A)
                 (A) (A) (A) (A) (A) (A) (A) (A) (A) (A) (A) (A)
                 (A) (A) (A) (A) (A) (A) (A) (A) (A) (A) (A) (A)
                 (A) (A) (A) (A) (A) (A) (A) (A) (A) (A) (A) (A)
                 (A) (A) (A) (A) (A) (A) (A) (A) (A) (A) (A) (A)
                 (A) (A) (A) (A) (A) (A) (A) (A) (A) (A) (A) (A)
                 (A) (A) (A) (A) (A) (A) (A) (A) (A) (A) (A) (A)
                 (A) (A) (A) (A) (A) (A) (A) (A) (A) (A) (A) (A)
                 (A) (A) (A) (A) (A) (A) (A) (A) (A) (A) (A) (A)
                 (A) (A) (A) (A) (A) (A) (A) (A) (A) (A) (A) (A)
                 (A) (A) (A) (A) (A) (A) (A) (A) (A) (A) (A) (A)
                 (A) (A) (A) (A) (A) (A) (A) (A) (A) (A) (A) (A)
                 (A) (A) (A) (A) (A) (A) (A) (A) (A) (A) (A) (A)
                 (A) (A) (A) (A) (A) (A) (A) (A) (A) (A) (A) (A)
                 (A) (A) (A) (A) (A) (A) (A) (A) (A) (A) (A) (A)
                 (A) (A) (A) (A) (A) (A) (A) (A) (A) (A) (A) (A)
                 (A) (A) (A) (A) (A) (A) (A) (A) (A) (A) (A) (A)
                 (A) (A) (A) (A) (A) (A) (A) (A) (A) (A) (A) (A)
                 (A) (A) (A) (A) (A) (A) (A) (A) (A) (A) (A) (A)
                 (A) (A) (A) (A) (A) (A) (A) (A) (A) (A) (A) (A)
                 (A) (A) (A) (A) (A) (A) (A) (A) (A) (A) (A) (A)
                 (A) (A) (A) (A) (A) (A) (A) (A) (A) (A) (A) (A)
                 (A) (A) (A) (A) (A) (A) (A) (A) (A) (A) (A) (A)
                 (A) (A) (A) (A) (A) (A) (A) (A) (A) (A) (A) (A)
                 (A) (A) (A) (A) (A) (A) (A) (A) (A) (A) (A) (A)
                 (A) (A) (A) (A) (A) (A) (A) (A) (A) (A) (A) (A)
                 (A) (A) (A) (A) (A) (A) (A) (A) (A) (A) (A) (A)
                 (A) (A) (A) (A) (A) (A) (A) (A) (A) (A) (A) (A)
                 (A) (A) (A) (A) (A) (A) (A) (A) (A) (A) (A) (A)
                 (A) (A) (A) (A) (A) (A) (A) (A) (A) (A) (A) (A)
                 (A) (A) (A) (A) (A) (A) (A) (A) (A) (A) (A) (A)
                 (A) (A) (A) (A) (A) (A) (A) (A) (A) (A) (A) (A)
                 (A) (A) (A) (A) (A) (A) (A) (A) (A) (A) (A) (A)
                 (A) (A) (A) (A) (A) (A) (A) (A) (A) (A) (A) (A)
                 (A) (A) (A) (A) (A) (A) (A) (A) (A) (A) (A) (A)
                 (A) (A) (A) (A) (A) (A) (A) (A) (A) (A) (A) (A)
                 (A) (A) (A) (A) (A) (A) (A) (A) (A) (A) (A) (A)
                 (A) (A) (A) (A) (A) (A) (A) (A) (A) (A) (A) (A)
                 (A) (A) (A) (A) (A) (A) (A) (A) (A) (A) (A) (A)
 The electronic state is 2-A.
 Alpha  occ. eigenvalues --  -25.18947 -25.18947 -19.60205 -14.75907 -14.75655
 Alpha  occ. eigenvalues --  -10.60678 -10.57047 -10.56937 -10.56749 -10.56326
 Alpha  occ. eigenvalues --  -10.55387 -10.53153 -10.53044 -10.53008 -10.52291
 Alpha  occ. eigenvalues --  -10.52233 -10.51810  -7.11142  -1.30664  -1.27438
 Alpha  occ. eigenvalues --   -1.13458  -1.07918  -1.05993  -0.90500  -0.87168
 Alpha  occ. eigenvalues --   -0.85583  -0.84795  -0.82769  -0.75675  -0.73259
 Alpha  occ. eigenvalues --   -0.68251  -0.67555  -0.64510  -0.62568  -0.61026
 Alpha  occ. eigenvalues --   -0.59327  -0.58471  -0.56622  -0.54073  -0.52965
 Alpha  occ. eigenvalues --   -0.51931  -0.51412  -0.50756  -0.50630  -0.49450
 Alpha  occ. eigenvalues --   -0.47945  -0.47447  -0.46669  -0.46422  -0.45895
 Alpha  occ. eigenvalues --   -0.45749  -0.44827  -0.44286  -0.43926  -0.43535
 Alpha  occ. eigenvalues --   -0.43297  -0.42532  -0.42231  -0.39238  -0.34066
 Alpha  occ. eigenvalues --   -0.32393  -0.30999  -0.29784  -0.25791  -0.20004
 Alpha virt. eigenvalues --    0.02072   0.07166   0.07493   0.07948   0.09643
 Alpha virt. eigenvalues --    0.10304   0.10642   0.10813   0.11716   0.12188
 Alpha virt. eigenvalues --    0.13150   0.13263   0.14981   0.15520   0.16541
 Alpha virt. eigenvalues --    0.17371   0.17626   0.17682   0.17879   0.18153
 Alpha virt. eigenvalues --    0.18753   0.19212   0.20748   0.21843   0.22306
 Alpha virt. eigenvalues --    0.23010   0.24129   0.24291   0.24723   0.24959
 Alpha virt. eigenvalues --    0.25136   0.26737   0.27011   0.27666   0.27722
 Alpha virt. eigenvalues --    0.29169   0.30410   0.30449   0.31207   0.32204
 Alpha virt. eigenvalues --    0.33305   0.33564   0.34147   0.34447   0.34579
 Alpha virt. eigenvalues --    0.35337   0.36469   0.37313   0.38559   0.38992
 Alpha virt. eigenvalues --    0.39304   0.39555   0.39802   0.40502   0.40746
 Alpha virt. eigenvalues --    0.41540   0.41632   0.42845   0.43492   0.43890
 Alpha virt. eigenvalues --    0.44452   0.44893   0.45073   0.45525   0.45820
 Alpha virt. eigenvalues --    0.46600   0.47457   0.47726   0.49289   0.49597
 Alpha virt. eigenvalues --    0.49660   0.50392   0.50673   0.51154   0.51646
 Alpha virt. eigenvalues --    0.52196   0.52218   0.53214   0.54605   0.55123
 Alpha virt. eigenvalues --    0.55635   0.56056   0.57306   0.57413   0.57992
 Alpha virt. eigenvalues --    0.60007   0.60866   0.61044   0.61271   0.61419
 Alpha virt. eigenvalues --    0.62120   0.62996   0.64163   0.64625   0.65862
 Alpha virt. eigenvalues --    0.67107   0.67398   0.67931   0.68687   0.68760
 Alpha virt. eigenvalues --    0.69907   0.71346   0.71784   0.72085   0.73389
 Alpha virt. eigenvalues --    0.73597   0.74477   0.75459   0.75592   0.76068
 Alpha virt. eigenvalues --    0.77262   0.77678   0.78460   0.80088   0.81169
 Alpha virt. eigenvalues --    0.81538   0.82302   0.82889   0.83266   0.83680
 Alpha virt. eigenvalues --    0.84795   0.84883   0.86800   0.87526   0.88004
 Alpha virt. eigenvalues --    0.89377   0.90310   0.91114   0.91423   0.92813
 Alpha virt. eigenvalues --    0.93347   0.94084   0.94234   0.94977   0.95800
 Alpha virt. eigenvalues --    0.96353   0.96676   0.96985   0.98883   1.00615
 Alpha virt. eigenvalues --    1.00953   1.02043   1.02372   1.03152   1.03349
 Alpha virt. eigenvalues --    1.04570   1.05173   1.05488   1.07613   1.07822
 Alpha virt. eigenvalues --    1.08072   1.08129   1.09270   1.09513   1.11919
 Alpha virt. eigenvalues --    1.12565   1.13053   1.13129   1.13378   1.14493
 Alpha virt. eigenvalues --    1.15431   1.15564   1.17629   1.17663   1.19034
 Alpha virt. eigenvalues --    1.19767   1.20272   1.21388   1.22583   1.23195
 Alpha virt. eigenvalues --    1.24056   1.24985   1.25244   1.27676   1.27748
 Alpha virt. eigenvalues --    1.27894   1.28684   1.30159   1.32767   1.33282
 Alpha virt. eigenvalues --    1.33501   1.35695   1.35903   1.37360   1.38087
 Alpha virt. eigenvalues --    1.39198   1.41218   1.41858   1.42371   1.43507
 Alpha virt. eigenvalues --    1.44343   1.44567   1.44804   1.45687   1.45861
 Alpha virt. eigenvalues --    1.47542   1.49032   1.49492   1.49958   1.50255
 Alpha virt. eigenvalues --    1.50437   1.50833   1.51280   1.51981   1.54406
 Alpha virt. eigenvalues --    1.54472   1.55416   1.56090   1.57403   1.57427
 Alpha virt. eigenvalues --    1.57544   1.58872   1.60020   1.60047   1.61227
 Alpha virt. eigenvalues --    1.61422   1.62499   1.63871   1.64642   1.65416
 Alpha virt. eigenvalues --    1.65860   1.67991   1.68108   1.69390   1.69935
 Alpha virt. eigenvalues --    1.70317   1.70537   1.73758   1.74096   1.75555
 Alpha virt. eigenvalues --    1.76203   1.80655   1.81826   1.83397   1.84249
 Alpha virt. eigenvalues --    1.84597   1.85481   1.87921   1.88026   1.88449
 Alpha virt. eigenvalues --    1.89285   1.89774   1.90294   1.94130   1.94224
 Alpha virt. eigenvalues --    1.94605   1.97659   1.99011   1.99087   2.00372
 Alpha virt. eigenvalues --    2.00711   2.02126   2.03150   2.04775   2.06968
 Alpha virt. eigenvalues --    2.07800   2.09742   2.10027   2.13338   2.14224
 Alpha virt. eigenvalues --    2.15161   2.15774   2.16098   2.18837   2.19538
 Alpha virt. eigenvalues --    2.20106   2.22256   2.24022   2.24540   2.27140
 Alpha virt. eigenvalues --    2.27731   2.29813   2.30275   2.30447   2.33855
 Alpha virt. eigenvalues --    2.33994   2.35791   2.37055   2.38882   2.39836
 Alpha virt. eigenvalues --    2.41532   2.42383   2.43394   2.44355   2.46323
 Alpha virt. eigenvalues --    2.48624   2.49473   2.50955   2.51046   2.52643
 Alpha virt. eigenvalues --    2.52684   2.54147   2.55578   2.56845   2.58336
 Alpha virt. eigenvalues --    2.59567   2.60882   2.61943   2.62229   2.62939
 Alpha virt. eigenvalues --    2.65284   2.66641   2.68269   2.68436   2.69616
 Alpha virt. eigenvalues --    2.70134   2.70932   2.71253   2.73419   2.73916
 Alpha virt. eigenvalues --    2.75311   2.76874   2.77860   2.78216   2.78496
 Alpha virt. eigenvalues --    2.79179   2.79398   2.80893   2.81553   2.82153
 Alpha virt. eigenvalues --    2.83477   2.84203   2.84881   2.85939   2.86132
 Alpha virt. eigenvalues --    2.87441   2.87767   2.89137   2.89167   2.90269
 Alpha virt. eigenvalues --    2.93338   2.93422   2.94340   2.95612   2.95633
 Alpha virt. eigenvalues --    2.97475   2.97737   2.98869   2.98875   2.99195
 Alpha virt. eigenvalues --    3.00595   3.01166   3.01384   3.01749   3.02033
 Alpha virt. eigenvalues --    3.02457   3.04404   3.04593   3.04628   3.05324
 Alpha virt. eigenvalues --    3.05492   3.07664   3.08109   3.08161   3.08709
 Alpha virt. eigenvalues --    3.09477   3.09993   3.10687   3.11460   3.12648
 Alpha virt. eigenvalues --    3.14057   3.14137   3.14901   3.14934   3.18092
 Alpha virt. eigenvalues --    3.18172   3.18498   3.19764   3.20290   3.21136
 Alpha virt. eigenvalues --    3.21479   3.21572   3.21972   3.23738   3.24137
 Alpha virt. eigenvalues --    3.25333   3.26156   3.26713   3.28092   3.28192
 Alpha virt. eigenvalues --    3.29006   3.30435   3.31196   3.32403   3.32962
 Alpha virt. eigenvalues --    3.33603   3.34088   3.34351   3.35171   3.35797
 Alpha virt. eigenvalues --    3.38508   3.39106   3.40025   3.40289   3.41491
 Alpha virt. eigenvalues --    3.42612   3.43309   3.44457   3.44487   3.44962
 Alpha virt. eigenvalues --    3.45864   3.47081   3.48409   3.48824   3.49642
 Alpha virt. eigenvalues --    3.50401   3.50621   3.51764   3.52292   3.53165
 Alpha virt. eigenvalues --    3.54654   3.54959   3.55206   3.55975   3.57485
 Alpha virt. eigenvalues --    3.58888   3.59714   3.60082   3.60339   3.61981
 Alpha virt. eigenvalues --    3.62762   3.63756   3.65489   3.66050   3.66272
 Alpha virt. eigenvalues --    3.67767   3.68689   3.69383   3.71403   3.74643
 Alpha virt. eigenvalues --    3.75026   3.75087   3.76042   3.77627   3.78405
 Alpha virt. eigenvalues --    3.78758   3.78995   3.81557   3.81842   3.84318
 Alpha virt. eigenvalues --    3.84444   3.86506   3.86631   3.87773   3.88040
 Alpha virt. eigenvalues --    3.88111   3.88377   3.89592   3.90141   3.90188
 Alpha virt. eigenvalues --    3.91580   3.93138   3.93578   3.94179   3.95161
 Alpha virt. eigenvalues --    3.95914   3.96269   3.96969   3.98090   4.00216
 Alpha virt. eigenvalues --    4.01084   4.01615   4.02678   4.03479   4.03764
 Alpha virt. eigenvalues --    4.05953   4.06149   4.06434   4.08581   4.10690
 Alpha virt. eigenvalues --    4.11194   4.11798   4.12793   4.14869   4.15306
 Alpha virt. eigenvalues --    4.15772   4.15825   4.16132   4.16225   4.17552
 Alpha virt. eigenvalues --    4.17897   4.19757   4.21280   4.21362   4.21471
 Alpha virt. eigenvalues --    4.22884   4.23797   4.25488   4.28824   4.30837
 Alpha virt. eigenvalues --    4.32518   4.33069   4.33624   4.35253   4.35704
 Alpha virt. eigenvalues --    4.37435   4.39751   4.41381   4.41556   4.41866
 Alpha virt. eigenvalues --    4.42210   4.44065   4.45095   4.46011   4.47598
 Alpha virt. eigenvalues --    4.49735   4.50126   4.53756   4.55257   4.57860
 Alpha virt. eigenvalues --    4.58518   4.60848   4.63782   4.64102   4.65831
 Alpha virt. eigenvalues --    4.66187   4.67181   4.68016   4.70062   4.71163
 Alpha virt. eigenvalues --    4.71913   4.73717   4.75586   4.78206   4.79336
 Alpha virt. eigenvalues --    4.81118   4.81284   4.86964   4.87799   4.88450
 Alpha virt. eigenvalues --    4.91702   4.92853   4.96435   4.97027   4.98923
 Alpha virt. eigenvalues --    5.00487   5.01275   5.02190   5.03191   5.05001
 Alpha virt. eigenvalues --    5.06925   5.07459   5.08922   5.13292   5.14012
 Alpha virt. eigenvalues --    5.15286   5.15951   5.17035   5.17447   5.18021
 Alpha virt. eigenvalues --    5.19168   5.20254   5.22344   5.22607   5.22875
 Alpha virt. eigenvalues --    5.24757   5.25107   5.25786   5.26985   5.27296
 Alpha virt. eigenvalues --    5.28951   5.31543   5.35078   5.37362   5.37945
 Alpha virt. eigenvalues --    5.38877   5.39180   5.40652   5.40898   5.43478
 Alpha virt. eigenvalues --    5.45293   5.46691   5.48353   5.51687   5.54977
 Alpha virt. eigenvalues --    5.55081   5.56688   5.57898   5.58563   5.59629
 Alpha virt. eigenvalues --    5.60678   5.61602   5.65886   5.69630   5.70764
 Alpha virt. eigenvalues --    5.76157   5.78292   5.80335   5.87115   5.88960
 Alpha virt. eigenvalues --    5.91602   5.98586   6.00334   6.02363   6.04490
 Alpha virt. eigenvalues --    6.04737   6.24379   6.32864   6.37529   6.45808
 Alpha virt. eigenvalues --    6.60167   6.79184   6.79319   6.95331   6.95397
 Alpha virt. eigenvalues --    6.98344   6.99094   6.99924   7.00290   7.04999
 Alpha virt. eigenvalues --    7.06081   7.10795   7.13073   7.18940   7.22641
 Alpha virt. eigenvalues --    7.25008   7.26581   7.34061   7.35077   8.43471
 Alpha virt. eigenvalues --    8.46111   8.57225   8.59314   8.80559   8.88800
 Alpha virt. eigenvalues --    8.90642   8.91289   8.92130   9.00589  15.87922
 Alpha virt. eigenvalues --   22.89423  22.91137  23.15143  23.33563  23.35387
 Alpha virt. eigenvalues --   23.41769  23.46402  23.58995  23.69609  23.70018
 Alpha virt. eigenvalues --   23.77241  23.97199  33.13445  33.22557  44.09367
 Alpha virt. eigenvalues --   57.26898  57.52449
  Beta  occ. eigenvalues --  -25.18946 -25.18946 -19.59846 -14.75914 -14.75655
  Beta  occ. eigenvalues --  -10.60675 -10.56983 -10.56932 -10.56656 -10.56373
  Beta  occ. eigenvalues --  -10.55180 -10.53164 -10.53054 -10.52892 -10.52258
  Beta  occ. eigenvalues --  -10.52199 -10.51827  -7.11143  -1.30659  -1.27433
  Beta  occ. eigenvalues --   -1.12474  -1.07763  -1.05835  -0.89951  -0.86926
  Beta  occ. eigenvalues --   -0.85342  -0.84596  -0.82348  -0.75498  -0.72714
  Beta  occ. eigenvalues --   -0.67885  -0.67478  -0.64272  -0.62305  -0.60877
  Beta  occ. eigenvalues --   -0.59043  -0.58298  -0.56546  -0.53764  -0.52807
  Beta  occ. eigenvalues --   -0.51784  -0.51101  -0.50203  -0.50104  -0.49166
  Beta  occ. eigenvalues --   -0.47758  -0.46540  -0.46322  -0.46240  -0.45799
  Beta  occ. eigenvalues --   -0.45351  -0.44710  -0.43717  -0.43441  -0.43094
  Beta  occ. eigenvalues --   -0.42353  -0.42310  -0.42004  -0.39075  -0.31728
  Beta  occ. eigenvalues --   -0.31538  -0.30400  -0.29292  -0.23749
  Beta virt. eigenvalues --   -0.07687   0.04370   0.07387   0.07789   0.08688
  Beta virt. eigenvalues --    0.09530   0.10199   0.10764   0.11563   0.11704
  Beta virt. eigenvalues --    0.12167   0.13154   0.13193   0.14990   0.15471
  Beta virt. eigenvalues --    0.16502   0.17355   0.17573   0.17887   0.18047
  Beta virt. eigenvalues --    0.18298   0.19215   0.19293   0.20758   0.21687
  Beta virt. eigenvalues --    0.22231   0.22841   0.23971   0.24405   0.24757
  Beta virt. eigenvalues --    0.24875   0.25195   0.26706   0.27003   0.27731
  Beta virt. eigenvalues --    0.27757   0.29239   0.30307   0.30555   0.31223
  Beta virt. eigenvalues --    0.32188   0.33295   0.33791   0.34291   0.34473
  Beta virt. eigenvalues --    0.34525   0.35443   0.36422   0.37550   0.38569
  Beta virt. eigenvalues --    0.39052   0.39353   0.39636   0.39748   0.40584
  Beta virt. eigenvalues --    0.40893   0.41461   0.41627   0.42936   0.43585
  Beta virt. eigenvalues --    0.43913   0.44633   0.44910   0.44940   0.45501
  Beta virt. eigenvalues --    0.45923   0.46646   0.47465   0.47850   0.49338
  Beta virt. eigenvalues --    0.49597   0.49710   0.50425   0.50601   0.51203
  Beta virt. eigenvalues --    0.51619   0.52111   0.52381   0.53257   0.54632
  Beta virt. eigenvalues --    0.55157   0.55757   0.56092   0.57367   0.57569
  Beta virt. eigenvalues --    0.58240   0.60120   0.61000   0.61085   0.61397
  Beta virt. eigenvalues --    0.61559   0.62245   0.63095   0.64268   0.64709
  Beta virt. eigenvalues --    0.66050   0.67223   0.67388   0.68156   0.68560
  Beta virt. eigenvalues --    0.68859   0.69532   0.71310   0.71842   0.72477
  Beta virt. eigenvalues --    0.73394   0.73726   0.74284   0.75416   0.75630
  Beta virt. eigenvalues --    0.76014   0.77459   0.77787   0.78479   0.80464
  Beta virt. eigenvalues --    0.81131   0.81583   0.82320   0.83104   0.83199
  Beta virt. eigenvalues --    0.83700   0.84877   0.84963   0.86692   0.87532
  Beta virt. eigenvalues --    0.88270   0.89423   0.90344   0.91089   0.91499
  Beta virt. eigenvalues --    0.92866   0.93418   0.94175   0.94407   0.95024
  Beta virt. eigenvalues --    0.95793   0.96546   0.96743   0.97097   0.98774
  Beta virt. eigenvalues --    1.00620   1.00954   1.02064   1.02348   1.03272
  Beta virt. eigenvalues --    1.03412   1.04595   1.05225   1.05576   1.07642
  Beta virt. eigenvalues --    1.08011   1.08176   1.08271   1.09492   1.09636
  Beta virt. eigenvalues --    1.11936   1.12636   1.13125   1.13222   1.13476
  Beta virt. eigenvalues --    1.14544   1.15588   1.15705   1.17737   1.17838
  Beta virt. eigenvalues --    1.19073   1.19765   1.20467   1.21605   1.22694
  Beta virt. eigenvalues --    1.23534   1.24142   1.25109   1.25413   1.27766
  Beta virt. eigenvalues --    1.27919   1.28056   1.28819   1.30187   1.32916
  Beta virt. eigenvalues --    1.33403   1.33763   1.36025   1.36415   1.37547
  Beta virt. eigenvalues --    1.38221   1.39458   1.41362   1.41924   1.42439
  Beta virt. eigenvalues --    1.43977   1.44501   1.45053   1.45377   1.45762
  Beta virt. eigenvalues --    1.46489   1.47566   1.49119   1.49369   1.50083
  Beta virt. eigenvalues --    1.50433   1.50535   1.50929   1.52100   1.52133
  Beta virt. eigenvalues --    1.54586   1.55023   1.55447   1.56232   1.57614
  Beta virt. eigenvalues --    1.57658   1.58197   1.59471   1.60090   1.60491
  Beta virt. eigenvalues --    1.61285   1.61520   1.63189   1.64825   1.64839
  Beta virt. eigenvalues --    1.65644   1.65971   1.68376   1.68489   1.69973
  Beta virt. eigenvalues --    1.70083   1.70591   1.70703   1.73766   1.74440
  Beta virt. eigenvalues --    1.75754   1.76773   1.80785   1.81910   1.83589
  Beta virt. eigenvalues --    1.84451   1.84724   1.85719   1.88095   1.88845
  Beta virt. eigenvalues --    1.89363   1.89854   1.89934   1.90474   1.94307
  Beta virt. eigenvalues --    1.94432   1.94679   1.97856   1.99190   1.99730
  Beta virt. eigenvalues --    2.00892   2.01035   2.02647   2.03297   2.05160
  Beta virt. eigenvalues --    2.07283   2.08201   2.09968   2.10287   2.13677
  Beta virt. eigenvalues --    2.14526   2.15352   2.15963   2.16427   2.19114
  Beta virt. eigenvalues --    2.19784   2.20474   2.22613   2.24175   2.24890
  Beta virt. eigenvalues --    2.27565   2.27954   2.30080   2.30515   2.30667
  Beta virt. eigenvalues --    2.34162   2.34314   2.36486   2.37421   2.39168
  Beta virt. eigenvalues --    2.40148   2.42140   2.42728   2.43675   2.44589
  Beta virt. eigenvalues --    2.46538   2.49338   2.49931   2.51352   2.51836
  Beta virt. eigenvalues --    2.52895   2.53092   2.55352   2.55740   2.56939
  Beta virt. eigenvalues --    2.58702   2.59925   2.61182   2.62869   2.63251
  Beta virt. eigenvalues --    2.64212   2.65527   2.67150   2.68723   2.68939
  Beta virt. eigenvalues --    2.70367   2.70985   2.71407   2.71536   2.74172
  Beta virt. eigenvalues --    2.74219   2.75463   2.77451   2.77981   2.78602
  Beta virt. eigenvalues --    2.78860   2.79578   2.80373   2.81196   2.82589
  Beta virt. eigenvalues --    2.82718   2.83690   2.84487   2.85219   2.86334
  Beta virt. eigenvalues --    2.86401   2.88102   2.88157   2.89442   2.90138
  Beta virt. eigenvalues --    2.90724   2.93751   2.93926   2.94621   2.95947
  Beta virt. eigenvalues --    2.96167   2.97759   2.98076   2.99270   2.99389
  Beta virt. eigenvalues --    2.99655   3.00877   3.01674   3.01785   3.02171
  Beta virt. eigenvalues --    3.02795   3.02817   3.04645   3.04905   3.05254
  Beta virt. eigenvalues --    3.05599   3.05997   3.08231   3.08502   3.08512
  Beta virt. eigenvalues --    3.09020   3.10199   3.10316   3.10964   3.11914
  Beta virt. eigenvalues --    3.13112   3.14524   3.14595   3.15652   3.15913
  Beta virt. eigenvalues --    3.18799   3.18869   3.19170   3.20295   3.20721
  Beta virt. eigenvalues --    3.21710   3.22159   3.22327   3.22870   3.24462
  Beta virt. eigenvalues --    3.24871   3.25875   3.26693   3.27288   3.29041
  Beta virt. eigenvalues --    3.29142   3.29285   3.30784   3.31872   3.32837
  Beta virt. eigenvalues --    3.33631   3.33808   3.34417   3.34686   3.35446
  Beta virt. eigenvalues --    3.36403   3.38804   3.39577   3.40543   3.41042
  Beta virt. eigenvalues --    3.41884   3.43109   3.43729   3.44937   3.45436
  Beta virt. eigenvalues --    3.45483   3.46256   3.47511   3.48739   3.49592
  Beta virt. eigenvalues --    3.50019   3.50854   3.50871   3.52102   3.52595
  Beta virt. eigenvalues --    3.53563   3.55098   3.55376   3.55581   3.56310
  Beta virt. eigenvalues --    3.58375   3.59110   3.59995   3.60546   3.60735
  Beta virt. eigenvalues --    3.62368   3.63165   3.64111   3.65817   3.66558
  Beta virt. eigenvalues --    3.66691   3.68054   3.69081   3.69676   3.72095
  Beta virt. eigenvalues --    3.75172   3.75240   3.75743   3.76547   3.77820
  Beta virt. eigenvalues --    3.78596   3.78974   3.79617   3.81940   3.82374
  Beta virt. eigenvalues --    3.84710   3.84849   3.86819   3.86990   3.87920
  Beta virt. eigenvalues --    3.88192   3.88406   3.88623   3.89879   3.90545
  Beta virt. eigenvalues --    3.90590   3.91903   3.93479   3.93772   3.94949
  Beta virt. eigenvalues --    3.95411   3.96551   3.96685   3.97293   3.98591
  Beta virt. eigenvalues --    4.00665   4.01410   4.01968   4.03846   4.04025
  Beta virt. eigenvalues --    4.04328   4.06065   4.06598   4.07199   4.08993
  Beta virt. eigenvalues --    4.11236   4.11360   4.12071   4.13181   4.15472
  Beta virt. eigenvalues --    4.15554   4.15953   4.16227   4.16488   4.16931
  Beta virt. eigenvalues --    4.17814   4.18259   4.19914   4.21723   4.21974
  Beta virt. eigenvalues --    4.22208   4.23127   4.24010   4.25848   4.29246
  Beta virt. eigenvalues --    4.31118   4.32697   4.33337   4.34654   4.35551
  Beta virt. eigenvalues --    4.36826   4.37644   4.40810   4.41889   4.42129
  Beta virt. eigenvalues --    4.42497   4.42702   4.44591   4.45531   4.46348
  Beta virt. eigenvalues --    4.48067   4.50326   4.51591   4.54451   4.55868
  Beta virt. eigenvalues --    4.58355   4.58992   4.61168   4.64192   4.64809
  Beta virt. eigenvalues --    4.66500   4.66673   4.67902   4.68637   4.70587
  Beta virt. eigenvalues --    4.71804   4.72092   4.74499   4.76579   4.79160
  Beta virt. eigenvalues --    4.79982   4.81472   4.82026   4.87615   4.88150
  Beta virt. eigenvalues --    4.89070   4.93014   4.93278   4.97496   4.98033
  Beta virt. eigenvalues --    4.99422   5.01154   5.01912   5.02672   5.04266
  Beta virt. eigenvalues --    5.05378   5.07062   5.08174   5.08999   5.13861
  Beta virt. eigenvalues --    5.14529   5.15489   5.16173   5.17342   5.18112
  Beta virt. eigenvalues --    5.18684   5.20110   5.21186   5.22392   5.22905
  Beta virt. eigenvalues --    5.23254   5.25111   5.25889   5.26491   5.27288
  Beta virt. eigenvalues --    5.27616   5.29791   5.32130   5.35719   5.37713
  Beta virt. eigenvalues --    5.38363   5.39114   5.39380   5.41025   5.41264
  Beta virt. eigenvalues --    5.43969   5.45891   5.47362   5.49257   5.52107
  Beta virt. eigenvalues --    5.55241   5.55553   5.57394   5.57741   5.58397
  Beta virt. eigenvalues --    5.59997   5.61717   5.61844   5.66452   5.70141
  Beta virt. eigenvalues --    5.71232   5.76447   5.78818   5.81120   5.87679
  Beta virt. eigenvalues --    5.89512   5.92106   5.98910   6.00864   6.02641
  Beta virt. eigenvalues --    6.05166   6.05609   6.24920   6.33415   6.40456
  Beta virt. eigenvalues --    6.46410   6.62540   6.79931   6.81468   6.95331
  Beta virt. eigenvalues --    6.95397   6.98346   6.99095   6.99925   7.00291
  Beta virt. eigenvalues --    7.06043   7.06145   7.11125   7.13074   7.18950
  Beta virt. eigenvalues --    7.22641   7.25013   7.26582   7.34063   7.35076
  Beta virt. eigenvalues --    8.43472   8.46111   8.57227   8.59315   8.80568
  Beta virt. eigenvalues --    8.88803   8.90644   8.91291   8.92131   9.00591
  Beta virt. eigenvalues --   15.87926  22.89564  22.91285  23.15775  23.33803
  Beta virt. eigenvalues --   23.35406  23.42136  23.46589  23.59226  23.69621
  Beta virt. eigenvalues --   23.70061  23.77438  23.97477  33.13444  33.22562
  Beta virt. eigenvalues --   44.09326  57.26898  57.52448
          Condensed to atoms (all electrons):
               1          2          3          4          5          6
     1  C    5.026772   0.259087  -0.056984   0.017021   0.005958  -0.053924
     2  C    0.259087   5.193132   0.555313  -0.074681  -0.170268   0.428426
     3  C   -0.056984   0.555313   5.018457   0.471079  -0.093425  -0.119837
     4  C    0.017021  -0.074681   0.471079   5.191950   0.514924  -0.110024
     5  C    0.005958  -0.170268  -0.093425   0.514924   5.607547   0.376565
     6  N   -0.053924   0.428426  -0.119837  -0.110024   0.376565   6.402219
     7  B   -0.017104  -0.029040   0.000380   0.002716  -0.057899   0.361606
     8  F   -0.011072  -0.001335   0.000714  -0.000392  -0.007548  -0.036740
     9  F   -0.010274  -0.001875   0.000648  -0.000390  -0.007572  -0.036584
    10  N   -0.001230  -0.000308  -0.000458  -0.001121  -0.011940  -0.036090
    11  C   -0.000389  -0.001059   0.000258  -0.000771  -0.011580   0.000453
    12  C    0.000014  -0.000359   0.000016  -0.000044   0.000482  -0.001105
    13  C    0.000015   0.000206  -0.000069   0.000457   0.003767  -0.001031
    14  C   -0.000029  -0.000292   0.000193  -0.001449   0.020041   0.000535
    15  C    0.000457  -0.007449   0.001869  -0.001965  -0.119909  -0.013515
    16  C   -0.003255  -0.019218   0.040437  -0.171425   0.095576  -0.039553
    17  C   -0.000005   0.001733  -0.000930  -0.004145  -0.146976   0.002603
    18  O    0.000001   0.000705  -0.000534   0.003831  -0.050022  -0.000132
    19  H    0.424231  -0.053473   0.003183  -0.000807   0.000485  -0.005325
    20  H    0.422857  -0.052920   0.002824  -0.000790   0.000494  -0.005075
    21  H    0.423477  -0.031931  -0.017895   0.001858  -0.001207   0.006741
    22  H   -0.002259  -0.022904   0.408345  -0.013974   0.003872   0.004499
    23  H   -0.000114   0.003618  -0.008355   0.402419  -0.024434   0.005469
    24  H   -0.000017  -0.000014   0.000002   0.000002  -0.000075   0.000027
    25  H    0.000002   0.000004  -0.000000   0.000000   0.000004   0.000029
    26  H   -0.000017  -0.000014   0.000002   0.000002  -0.000066   0.000004
    27  H    0.000000   0.000001  -0.000000   0.000001   0.000083   0.000007
    28  H    0.000000   0.000003   0.000001  -0.000047  -0.000227   0.000053
    29  H    0.000001   0.000216  -0.000214   0.003491   0.028031  -0.000418
               7          8          9         10         11         12
     1  C   -0.017104  -0.011072  -0.010274  -0.001230  -0.000389   0.000014
     2  C   -0.029040  -0.001335  -0.001875  -0.000308  -0.001059  -0.000359
     3  C    0.000380   0.000714   0.000648  -0.000458   0.000258   0.000016
     4  C    0.002716  -0.000392  -0.000390  -0.001121  -0.000771  -0.000044
     5  C   -0.057899  -0.007548  -0.007572  -0.011940  -0.011580   0.000482
     6  N    0.361606  -0.036740  -0.036584  -0.036090   0.000453  -0.001105
     7  B    3.361560   0.352329   0.353170   0.362003  -0.031336  -0.017706
     8  F    0.352329   9.160787  -0.035606  -0.036535  -0.001531  -0.010512
     9  F    0.353170  -0.035606   9.160245  -0.036983  -0.001346  -0.011016
    10  N    0.362003  -0.036535  -0.036983   6.393739   0.416223  -0.055612
    11  C   -0.031336  -0.001531  -0.001346   0.416223   5.188654   0.258686
    12  C   -0.017706  -0.010512  -0.011016  -0.055612   0.258686   5.023794
    13  C    0.003732   0.000609   0.000651  -0.103689   0.559983  -0.053871
    14  C   -0.005215  -0.000348  -0.000341  -0.121846  -0.095667   0.014328
    15  C   -0.056154  -0.007556  -0.007572   0.387401  -0.151150   0.008711
    16  C   -0.006314   0.005279   0.005309  -0.031895   0.006634  -0.002035
    17  C    0.010027   0.000107   0.000111   0.002919  -0.002467  -0.000100
    18  O    0.000548  -0.000000  -0.000000  -0.000059   0.000034  -0.000000
    19  H   -0.003031   0.005321  -0.001452   0.000009  -0.000013  -0.000018
    20  H   -0.002844  -0.001327   0.005059   0.000027  -0.000013  -0.000017
    21  H    0.003609   0.000265   0.000260   0.000030   0.000004   0.000002
    22  H    0.000267   0.000014   0.000013   0.000010   0.000001   0.000000
    23  H    0.000720   0.000006   0.000006   0.000010  -0.000013  -0.000000
    24  H   -0.002853   0.005189  -0.001309  -0.004843  -0.053085   0.423145
    25  H    0.003561   0.000271   0.000261   0.006600  -0.031895   0.422985
    26  H   -0.002824  -0.001433   0.005286  -0.005046  -0.053436   0.423932
    27  H    0.000354   0.000013   0.000013   0.004896  -0.019908  -0.002090
    28  H    0.000460   0.000006   0.000006   0.004604  -0.001043  -0.000245
    29  H    0.000565  -0.000000  -0.000000  -0.000170  -0.001417  -0.000016
              13         14         15         16         17         18
     1  C    0.000015  -0.000029   0.000457  -0.003255  -0.000005   0.000001
     2  C    0.000206  -0.000292  -0.007449  -0.019218   0.001733   0.000705
     3  C   -0.000069   0.000193   0.001869   0.040437  -0.000930  -0.000534
     4  C    0.000457  -0.001449  -0.001965  -0.171425  -0.004145   0.003831
     5  C    0.003767   0.020041  -0.119909   0.095576  -0.146976  -0.050022
     6  N   -0.001031   0.000535  -0.013515  -0.039553   0.002603  -0.000132
     7  B    0.003732  -0.005215  -0.056154  -0.006314   0.010027   0.000548
     8  F    0.000609  -0.000348  -0.007556   0.005279   0.000107  -0.000000
     9  F    0.000651  -0.000341  -0.007572   0.005309   0.000111  -0.000000
    10  N   -0.103689  -0.121846   0.387401  -0.031895   0.002919  -0.000059
    11  C    0.559983  -0.095667  -0.151150   0.006634  -0.002467   0.000034
    12  C   -0.053871   0.014328   0.008711  -0.002035  -0.000100  -0.000000
[...]
    18  O    0.000000   0.000000   0.000000  -0.000024   0.001718
    19  H   -0.000000  -0.000019   0.000000  -0.000000   0.000000
    20  H    0.000000   0.000034  -0.000000  -0.000000   0.000000
    21  H   -0.000000  -0.000000  -0.000000  -0.000000  -0.000000
    22  H   -0.000000   0.000000   0.000000  -0.000000   0.000000
    23  H   -0.000000  -0.000000  -0.000000  -0.000000  -0.000062
    24  H   -0.000183  -0.006105  -0.000007  -0.000000   0.000000
    25  H    0.001433  -0.000133  -0.000028  -0.000000   0.000000
    26  H   -0.000133   0.018895  -0.000008  -0.000000   0.000000
    27  H   -0.000028  -0.000008   0.000220  -0.000098   0.000004
    28  H   -0.000000  -0.000000  -0.000098  -0.007596   0.000101
    29  H    0.000000   0.000000   0.000004   0.000101  -0.005604
 Mulliken charges and spin densities:
               1          2
     1  C   -0.423220  -0.013864
     2  C    0.024695   0.129196
     3  C   -0.205017  -0.017363
     4  C   -0.227726   0.139968
     5  C    0.045318  -0.024395
     6  N   -0.129882   0.008026
     7  B    0.414711   0.002278
     8  F   -0.378978   0.000681
     9  F   -0.378719   0.000679
    10  N   -0.130644   0.004941
    11  C    0.027188   0.161056
    12  C   -0.421349  -0.016133
    13  C   -0.208971  -0.029039
    14  C   -0.189347   0.168691
    15  C    0.063321  -0.054947
    16  C   -0.047879   0.323460
    17  C    0.086101   0.016990
    18  O   -0.473236   0.190695
    19  H    0.144483   0.008004
    20  H    0.144480   0.008188
    21  H    0.126808   0.000771
    22  H    0.156022  -0.001833
    23  H    0.178137  -0.009638
    24  H    0.145397   0.010004
    25  H    0.127625   0.000914
    26  H    0.145275   0.009890
    27  H    0.159197  -0.001718
    28  H    0.166851  -0.009376
    29  H    0.059359  -0.006125
 Sum of Mulliken charges =  -1.00000   1.00000
 Mulliken charges and spin densities with hydrogens summed into heavy atoms:
               1          2
     1  C   -0.007448   0.003099
     2  C    0.024695   0.129196
     3  C   -0.048995  -0.019196
     4  C   -0.049589   0.130330
     5  C    0.045318  -0.024395
     6  N   -0.129882   0.008026
     7  B    0.414711   0.002278
     8  F   -0.378978   0.000681
     9  F   -0.378719   0.000679
    10  N   -0.130644   0.004941
    11  C    0.027188   0.161056
    12  C   -0.003052   0.004676
    13  C   -0.049774  -0.030757
    14  C   -0.022496   0.159315
    15  C    0.063321  -0.054947
    16  C   -0.047879   0.323460
    17  C    0.145460   0.010865
    18  O   -0.473236   0.190695
 Electronic spatial extent (au):  <R**2>=           4041.0610
 Charge=             -1.0000 electrons
 Dipole moment (field-independent basis, Debye):
    X=              3.5011    Y=             -2.6794    Z=             -0.0127  Tot=              4.4088
 Quadrupole moment (field-independent basis, Debye-Ang):
   XX=           -112.5917   YY=           -131.9486   ZZ=           -115.1722
   XY=             17.4036   XZ=              0.0084   YZ=             -0.0055
 Traceless Quadrupole moment (field-independent basis, Debye-Ang):
   XX=              7.3125   YY=            -12.0444   ZZ=              4.7320
   XY=             17.4036   XZ=              0.0084   YZ=             -0.0055
 Octapole moment (field-independent basis, Debye-Ang**2):
  XXX=             36.4206  YYY=            -84.8227  ZZZ=              0.0597  XYY=             47.8710
  XXY=            -49.0598  XXZ=             -0.0397  XZZ=              0.1849  YZZ=             -3.9097
  YYZ=             -0.0731  XYZ=              0.0319
 Hexadecapole moment (field-independent basis, Debye-Ang**3):
 XXXX=          -2815.5762 YYYY=          -2604.5436 ZZZZ=           -224.9266 XXXY=             33.9729
 XXXZ=              0.3256 YYYX=            235.9444 YYYZ=             -0.3913 ZZZX=             -0.1517
 ZZZY=              0.0470 XXYY=           -946.0107 XXZZ=           -582.5332 YYZZ=           -443.4809
 XXYZ=             -0.0822 YYXZ=              0.1740 ZZXY=            -18.0366
 N-N= 1.322138706433D+03 E-N=-4.708278305002D+03  KE= 8.690404182554D+02
                          Isotropic Fermi Contact Couplings
        Atom                 a.u.       MegaHertz       Gauss      10(-4) cm-1
     1  C(13)             -0.00514      -5.77515      -2.06072      -1.92638
     2  C(13)              0.01646      18.50230       6.60208       6.17170
     3  C(13)             -0.00940     -10.56920      -3.77135      -3.52551
     4  C(13)              0.01613      18.13687       6.47169       6.04981
     5  C(13)             -0.01987     -22.34239      -7.97232      -7.45262
     6  N(14)             -0.00413      -1.33537      -0.47649      -0.44543
     7  B(11)             -0.00039      -0.56503      -0.20162      -0.18847
     8  F(19)              0.00114       4.79008       1.70922       1.59780
     9  F(19)              0.00113       4.75464       1.69657       1.58598
    10  N(14)             -0.00631      -2.03745      -0.72701      -0.67962
    11  C(13)              0.02089      23.48780       8.38103       7.83469
    12  C(13)             -0.00633      -7.11559      -2.53902      -2.37350
    13  C(13)             -0.01201     -13.49831      -4.81653      -4.50255
    14  C(13)              0.02072      23.28879       8.31002       7.76830
    15  C(13)             -0.02033     -22.85285      -8.15447      -7.62289
    16  C(13)              0.03734      41.98070      14.97976      14.00326
    17  C(13)             -0.01014     -11.39593      -4.06635      -3.80127
    18  O(17)              0.03374     -20.45014      -7.29712      -6.82143
    19  H(1)               0.00355      15.85984       5.65919       5.29027
    20  H(1)               0.00365      16.30771       5.81899       5.43967
    21  H(1)               0.00001       0.03795       0.01354       0.01266
    22  H(1)              -0.00013      -0.59213      -0.21129      -0.19751
    23  H(1)              -0.00238     -10.64136      -3.79710      -3.54958
    24  H(1)               0.00449      20.04932       7.15410       6.68773
    25  H(1)               0.00001       0.04636       0.01654       0.01546
    26  H(1)               0.00442      19.74935       7.04706       6.58767
    27  H(1)              -0.00008      -0.37284      -0.13304      -0.12437
    28  H(1)              -0.00280     -12.51943      -4.46724      -4.17603
    29  H(1)              -0.00191      -8.55201      -3.05157      -2.85264
 --------------------------------------------------------
       Center         ----  Spin Dipole Couplings  ----
                      3XX-RR        3YY-RR        3ZZ-RR
 --------------------------------------------------------
     1   Atom       -0.002381      0.001509      0.000873
     2   Atom       -0.077685     -0.074931      0.152616
     3   Atom        0.002513      0.001776     -0.004289
     4   Atom       -0.075134     -0.076219      0.151353
     5   Atom        0.016762      0.019319     -0.036081
     6   Atom       -0.008308     -0.003152      0.011460
     7   Atom        0.001201      0.001181     -0.002382
     8   Atom       -0.001066      0.003294     -0.002229
     9   Atom       -0.001136      0.003362     -0.002226
    10   Atom       -0.006429      0.002237      0.004192
    11   Atom       -0.097454     -0.092285      0.189739
    12   Atom       -0.002234      0.000828      0.001406
    13   Atom        0.004821      0.005432     -0.010253
    14   Atom       -0.092897     -0.093609      0.186505
    15   Atom        0.018266      0.011375     -0.029641
    16   Atom       -0.178056     -0.166140      0.344196
    17   Atom       -0.030298     -0.029629      0.059927
    18   Atom       -0.395692     -0.380923      0.776614
    19   Atom       -0.001104      0.002436     -0.001331
    20   Atom       -0.001159      0.002433     -0.001274
    21   Atom       -0.001095      0.002798     -0.001703
    22   Atom        0.003276     -0.000830     -0.002446
    23   Atom       -0.001123      0.004794     -0.003672
    24   Atom       -0.001276      0.002696     -0.001420
    25   Atom        0.001720      0.000219     -0.001938
    26   Atom       -0.001269      0.002712     -0.001443
    27   Atom        0.002342      0.000445     -0.002786
    28   Atom       -0.009696      0.013314     -0.003618
    29   Atom       -0.000049      0.006505     -0.006456
 --------------------------------------------------------
                        XY            XZ            YZ
 --------------------------------------------------------
     1   Atom       -0.000266      0.000013     -0.000009
     2   Atom       -0.001676     -0.000092      0.000158
     3   Atom       -0.000531      0.000041     -0.000039
     4   Atom        0.000358     -0.000252     -0.000136
     5   Atom        0.003850      0.000074      0.000026
     6   Atom       -0.002722      0.000041      0.000091
     7   Atom        0.000014     -0.000004     -0.000000
     8   Atom       -0.001657     -0.000607      0.002076
     9   Atom       -0.001635      0.000583     -0.002110
    10   Atom       -0.000334     -0.000040      0.000141
    11   Atom       -0.000290      0.000186      0.000291
    12   Atom       -0.001704      0.000011      0.000012
    13   Atom        0.000862      0.000033     -0.000063
    14   Atom        0.001666      0.000489      0.000285
    15   Atom       -0.003388     -0.000076     -0.000046
    16   Atom       -0.002964      0.000075     -0.000744
    17   Atom       -0.011040      0.000019     -0.000260
    18   Atom        0.011823     -0.000216     -0.002230
    19   Atom       -0.000784     -0.000647      0.001583
    20   Atom       -0.000748      0.000650     -0.001621
    21   Atom        0.001959     -0.000000      0.000018
    22   Atom        0.000036      0.000004     -0.000000
    23   Atom       -0.007553     -0.000001      0.000002
    24   Atom       -0.001216     -0.000192      0.002088
    25   Atom       -0.003133      0.000008     -0.000012
    26   Atom       -0.001189      0.000185     -0.002078
    27   Atom        0.002056     -0.000009     -0.000008
    28   Atom        0.004094      0.000004     -0.000004
    29   Atom        0.007623      0.000007      0.000024
 --------------------------------------------------------


 ---------------------------------------------------------------------------------
              Anisotropic Spin Dipole Couplings in Principal Axis System
 ---------------------------------------------------------------------------------

       Atom             a.u.   MegaHertz   Gauss  10(-4) cm-1        Axes

              Baa    -0.0024    -0.322    -0.115    -0.107  0.9977  0.0679 -0.0039
     1 C(13)  Bbb     0.0009     0.117     0.042     0.039  0.0029  0.0152  0.9999
              Bcc     0.0015     0.205     0.073     0.068 -0.0679  0.9976 -0.0149
 
              Baa    -0.0785   -10.531    -3.758    -3.513  0.9042  0.4272  0.0001
     2 C(13)  Bbb    -0.0741    -9.949    -3.550    -3.319 -0.4272  0.9042 -0.0008
              Bcc     0.1526    20.480     7.308     6.831 -0.0004  0.0007  1.0000
 
              Baa    -0.0043    -0.576    -0.205    -0.192 -0.0055  0.0059  1.0000
     3 C(13)  Bbb     0.0015     0.201     0.072     0.067  0.4637  0.8860 -0.0027
              Bcc     0.0028     0.375     0.134     0.125  0.8860 -0.4637  0.0076
 
              Baa    -0.0763   -10.242    -3.655    -3.416 -0.2877  0.9577  0.0003
     4 C(13)  Bbb    -0.0750   -10.068    -3.592    -3.358  0.9577  0.2877  0.0012
              Bcc     0.1514    20.310     7.247     6.775 -0.0011 -0.0006  1.0000
 
              Baa    -0.0361    -4.842    -1.728    -1.615 -0.0014 -0.0004  1.0000
     5 C(13)  Bbb     0.0140     1.876     0.670     0.626  0.8109 -0.5852  0.0009
              Bcc     0.0221     2.965     1.058     0.989  0.5852  0.8109  0.0011
 
              Baa    -0.0095    -0.366    -0.130    -0.122  0.9186  0.3952 -0.0035
     6 N(14)  Bbb    -0.0020    -0.076    -0.027    -0.025 -0.3952  0.9186 -0.0050
              Bcc     0.0115     0.442     0.158     0.147  0.0013  0.0060  1.0000
 
              Baa    -0.0024    -0.408    -0.146    -0.136  0.0011  0.0000  1.0000
     7 B(11)  Bbb     0.0012     0.201     0.072     0.067 -0.4468  0.8946  0.0004
              Bcc     0.0012     0.207     0.074     0.069  0.8946  0.4468 -0.0010
 
              Baa    -0.0029    -1.468    -0.524    -0.490  0.0362 -0.3078  0.9508
     8 F(19)  Bbb    -0.0016    -0.813    -0.290    -0.271  0.9532  0.2963  0.0596
              Bcc     0.0045     2.281     0.814     0.761 -0.3000  0.9042  0.3041
 
              Baa    -0.0029    -1.474    -0.526    -0.492 -0.0240  0.3121  0.9497
     9 F(19)  Bbb    -0.0017    -0.834    -0.298    -0.278  0.9568  0.2826 -0.0686
              Bcc     0.0046     2.308     0.823     0.770 -0.2898  0.9071 -0.3054
 
              Baa    -0.0064    -0.248    -0.089    -0.083  0.9993  0.0384  0.0032
    10 N(14)  Bbb     0.0022     0.086     0.031     0.029 -0.0381  0.9966 -0.0726
              Bcc     0.0042     0.162     0.058     0.054 -0.0060  0.0725  0.9974
 
              Baa    -0.0975   -13.080    -4.667    -4.363  0.9984  0.0558 -0.0007
    11 C(13)  Bbb    -0.0923   -12.382    -4.418    -4.130 -0.0558  0.9984 -0.0010
              Bcc     0.1897    25.461     9.085     8.493  0.0006  0.0010  1.0000
 
              Baa    -0.0030    -0.402    -0.143    -0.134  0.9133  0.4073 -0.0034
    12 C(13)  Bbb     0.0014     0.189     0.067     0.063  0.0182 -0.0323  0.9993
              Bcc     0.0016     0.213     0.076     0.071 -0.4069  0.9127  0.0369
 
              Baa    -0.0103    -1.376    -0.491    -0.459 -0.0024  0.0042  1.0000
    13 C(13)  Bbb     0.0042     0.565     0.202     0.189  0.8167 -0.5770  0.0044
              Bcc     0.0060     0.811     0.289     0.270  0.5770  0.8167 -0.0020
 
              Baa    -0.0950   -12.742    -4.547    -4.250 -0.6290  0.7774  0.0003
    14 C(13)  Bbb    -0.0915   -12.285    -4.384    -4.098  0.7774  0.6290 -0.0020
              Bcc     0.1865    25.027     8.930     8.348  0.0018  0.0010  1.0000
 
              Baa    -0.0296    -3.978    -1.419    -1.327  0.0017  0.0013  1.0000
    15 C(13)  Bbb     0.0100     1.340     0.478     0.447  0.3788  0.9255 -0.0018
              Bcc     0.0197     2.637     0.941     0.880  0.9255 -0.3788 -0.0011
 
              Baa    -0.1788   -23.987    -8.559    -8.001  0.9735  0.2288  0.0002
    16 C(13)  Bbb    -0.1654   -22.201    -7.922    -7.405 -0.2288  0.9735  0.0015
              Bcc     0.3442    46.188    16.481    15.407  0.0002 -0.0015  1.0000
 
              Baa    -0.0410    -5.503    -1.964    -1.836  0.7177  0.6963  0.0017
    17 C(13)  Bbb    -0.0189    -2.539    -0.906    -0.847 -0.6963  0.7177  0.0025
              Bcc     0.0599     8.042     2.870     2.682  0.0006 -0.0030  1.0000
 
              Baa    -0.4022    29.106    10.386     9.709  0.8745 -0.4849 -0.0008
    18 O(17)  Bbb    -0.3744    27.089     9.666     9.036  0.4849  0.8745  0.0018
              Bcc     0.7766   -56.196   -20.052   -18.745 -0.0002 -0.0019  1.0000
 
              Baa    -0.0021    -1.098    -0.392    -0.366  0.4017 -0.2411  0.8835
    19 H(1)   Bbb    -0.0012    -0.623    -0.222    -0.208  0.8896  0.3316 -0.3140
              Bcc     0.0032     1.721     0.614     0.574 -0.2172  0.9121  0.3477
 
              Baa    -0.0020    -1.093    -0.390    -0.365 -0.4314  0.2424  0.8690
    20 H(1)   Bbb    -0.0012    -0.635    -0.227    -0.212  0.8779  0.3345  0.3425
              Bcc     0.0032     1.728     0.617     0.576 -0.2076  0.9107 -0.3571
 
              Baa    -0.0019    -1.019    -0.364    -0.340  0.9227 -0.3840  0.0348
    21 H(1)   Bbb    -0.0017    -0.909    -0.324    -0.303 -0.0333  0.0106  0.9994
              Bcc     0.0036     1.928     0.688     0.643  0.3841  0.9233  0.0030
 
              Baa    -0.0024    -1.305    -0.466    -0.435 -0.0008  0.0003  1.0000
    22 H(1)   Bbb    -0.0008    -0.443    -0.158    -0.148 -0.0088  1.0000 -0.0003
              Bcc     0.0033     1.748     0.624     0.583  1.0000  0.0088  0.0008
 
              Baa    -0.0063    -3.348    -1.195    -1.117  0.8261  0.5636 -0.0001
    23 H(1)   Bbb    -0.0037    -1.959    -0.699    -0.653  0.0002 -0.0001  1.0000
              Bcc     0.0099     5.307     1.894     1.770 -0.5636  0.8261  0.0001
 
              Baa    -0.0024    -1.276    -0.455    -0.426 -0.3162 -0.4239  0.8487
    24 H(1)   Bbb    -0.0015    -0.778    -0.278    -0.260  0.9210  0.0775  0.3818
              Bcc     0.0038     2.054     0.733     0.685 -0.2277  0.9024  0.3659
 
              Baa    -0.0023    -1.202    -0.429    -0.401  0.6192  0.7851  0.0134
    25 H(1)   Bbb    -0.0019    -1.034    -0.369    -0.345 -0.0100 -0.0091  0.9999
              Bcc     0.0042     2.236     0.798     0.746  0.7852 -0.6193  0.0022
 
              Baa    -0.0024    -1.277    -0.456    -0.426  0.3019  0.4188  0.8564
    26 H(1)   Bbb    -0.0014    -0.772    -0.275    -0.258  0.9267  0.0818 -0.3667
              Bcc     0.0038     2.049     0.731     0.684 -0.2237  0.9044 -0.3634
 
              Baa    -0.0028    -1.487    -0.530    -0.496  0.0012  0.0016  1.0000
    27 H(1)   Bbb    -0.0009    -0.465    -0.166    -0.155 -0.5391  0.8423 -0.0007
              Bcc     0.0037     1.952     0.696     0.651  0.8423  0.5391 -0.0019
 
              Baa    -0.0104    -5.551    -1.981    -1.851  0.9854 -0.1701 -0.0007
    28 H(1)   Bbb    -0.0036    -1.930    -0.689    -0.644  0.0007  0.0001  1.0000
              Bcc     0.0140     7.481     2.669     2.495  0.1701  0.9854 -0.0002
 
              Baa    -0.0065    -3.445    -1.229    -1.149  0.0036 -0.0039  1.0000
    29 H(1)   Bbb    -0.0051    -2.705    -0.965    -0.902  0.8351 -0.5500 -0.0052
              Bcc     0.0115     6.149     2.194     2.051  0.5500  0.8351  0.0013
 

 ---------------------------------------------------------------------------------

 No NMR shielding tensors so no spin-rotation constants.
 Leave Link  601 at Wed Nov  5 21:35:17 2025, MaxMem= 30870077440 cpu:              82.4 elap:               1.5
 (Enter /public/software/gauss/g16/l9999.exe)
 1\1\GINC-CU015\SP\UM062X\def2TZVPP\C12H11B1F2N2O1(1-,2)\BAIDING\05-Nov
 -2025\0\\#p M062X/DEF2TZVPP scrf=(solvent=water) em=GD3\\Energy calcul
 ation for M100023564_reduced\\-1,2\C,0,2.223687,-2.907532,0.000923\C,0
 ,2.221268,-1.412921,0.00269\C,0,3.309707,-0.540335,0.002966\C,0,2.8062
 36,0.772705,0.001857\C,0,1.402474,0.680566,0.001271\N,0,1.063695,-0.67
 1897,0.001979\B,0,-0.367296,-1.243894,-0.00204\F,0,-0.577777,-2.052116
 ,1.137868\F,0,-0.573896,-2.04535,-1.147314\N,0,-1.348413,-0.053367,0.0
 00126\C,0,-2.72109,-0.145455,0.001176\C,0,-3.441763,-1.454093,0.000291
 \C,0,-3.253672,1.144408,0.00283\C,0,-2.180003,2.050772,0.002806\C,0,-0
 .992452,1.290226,0.000909\C,0,0.38472,1.688721,0.000214\C,0,0.69529,3.
 089078,-0.00236\O,0,1.838364,3.601334,-0.002991\H,0,1.697545,-3.311344
 ,0.872958\H,0,1.720556,-3.309541,-0.885688\H,0,3.25067,-3.280112,0.013
 549\H,0,4.34917,-0.842244,0.00413\H,0,3.367757,1.692956,0.002082\H,0,-
 3.187669,-2.052576,0.882235\H,0,-4.521441,-1.287408,-0.005733\H,0,-3.1
 78325,-2.056164,-0.876403\H,0,-4.309464,1.382203,0.003953\H,0,-2.24694
 1,3.129456,0.00417\H,0,-0.180629,3.760773,-0.004283\\Version=ES64L-G16
 RevA.03\State=2-A\HF=-873.5149119\S2=0.769512\S2-1=0.\S2A=0.75029\RMSD
 =9.536e-09\Dipole=-1.3774564,-1.0541374,0.005007\Quadrupole=5.4366467,
 -8.9547402,3.5180934,-12.9391851,0.0062162,0.0040718\PG=C01 [X(C12H11B
 1F2N2O1)]\\@


 ... IT IS NO ONE DREAME THAT
     CAN PLEASE THESE ALL ...

                -- BEN JONSON
 Job cpu time:       0 days  4 hours 56 minutes 42.3 seconds.
 Elapsed time:       0 days  0 hours  4 minutes 41.9 seconds.
 File lengths (MBytes):  RWF=    559 Int=      0 D2E=      0 Chk=     37 Scr=      1
 Normal termination of Gaussian 16 at Wed Nov  5 21:35:17 2025.
