 Entering Gaussian System, Link 0=g16
 Input=M100032027_reduced_sp.gjf
 Output=M100032027_reduced_sp.log
 Initial command:
 /public/software/gauss/g16/l1.exe "/public/home/baiding/1101_v2_sp/tmp_M100032027_reduced_sp_1568608/Gau-4116302.inp" -scrdir="/public/home/baiding/1101_v2_sp/tmp_M100032027_reduced_sp_1568608/"
 Entering Link 1 = /public/software/gauss/g16/l1.exe PID=   4116303.
  
 Copyright (c) 1988,1990,1992,1993,1995,1998,2003,2009,2016,
            Gaussian, Inc.  All Rights Reserved.
  
 This is part of the Gaussian(R) 16 program.  It is based on
 the Gaussian(R) 09 system (copyright 2009, Gaussian, Inc.),
 the Gaussian(R) 03 system (copyright 2003, Gaussian, Inc.),
 the Gaussian(R) 98 system (copyright 1998, Gaussian, Inc.),
 the Gaussian(R) 94 system (copyright 1995, Gaussian, Inc.),
 the Gaussian 92(TM) system (copyright 1992, Gaussian, Inc.),
 the Gaussian 90(TM) system (copyright 1990, Gaussian, Inc.),
 the Gaussian 88(TM) system (copyright 1988, Gaussian, Inc.),
 the Gaussian 86(TM) system (copyright 1986, Carnegie Mellon
 University), and the Gaussian 82(TM) system (copyright 1983,
 Carnegie Mellon University). Gaussian is a federally registered
 trademark of Gaussian, Inc.
  
 This software contains proprietary and confidential information,
 including trade secrets, belonging to Gaussian, Inc.
  
 This software is provided under written license and may be
 used, copied, transmitted, or stored only in accord with that
 written license.
  
 The following legend is applicable only to US Government
 contracts under FAR:
  
                    RESTRICTED RIGHTS LEGEND
  
 Use, reproduction and disclosure by the US Government is
 subject to restrictions as set forth in subparagraphs (a)
 and (c) of the Commercial Computer Software - Restricted
 Rights clause in FAR 52.227-19.
  
 Gaussian, Inc.
 340 Quinnipiac St., Bldg. 40, Wallingford CT 06492
  
  
 ---------------------------------------------------------------
 Warning -- This program may not be used in any manner that
 competes with the business of Gaussian, Inc. or will provide
 assistance to any competitor of Gaussian, Inc.  The licensee
 of this program is prohibited from giving any competitor of
 Gaussian, Inc. access to this program.  By using this program,
 the user acknowledges that Gaussian, Inc. is engaged in the
 business of creating and licensing software in the field of
 computational chemistry and represents and warrants to the
 licensee that it is not a competitor of Gaussian, Inc. and that
 it will not use this program in any manner prohibited above.
 ---------------------------------------------------------------
  

 Cite this work as:
 Gaussian 16, Revision A.03,
 M. J. Frisch, G. W. Trucks, H. B. Schlegel, G. E. Scuseria, 
 M. A. Robb, J. R. Cheeseman, G. Scalmani, V. Barone, 
 G. A. Petersson, H. Nakatsuji, X. Li, M. Caricato, A. V. Marenich, 
 J. Bloino, B. G. Janesko, R. Gomperts, B. Mennucci, H. P. Hratchian, 
 J. V. Ortiz, A. F. Izmaylov, J. L. Sonnenberg, D. Williams-Young, 
 F. Ding, F. Lipparini, F. Egidi, J. Goings, B. Peng, A. Petrone, 
 T. Henderson, D. Ranasinghe, V. G. Zakrzewski, J. Gao, N. Rega, 
 G. Zheng, W. Liang, M. Hada, M. Ehara, K. Toyota, R. Fukuda, 
 J. Hasegawa, M. Ishida, T. Nakajima, Y. Honda, O. Kitao, H. Nakai, 
 T. Vreven, K. Throssell, J. A. Montgomery, Jr., J. E. Peralta, 
 F. Ogliaro, M. J. Bearpark, J. J. Heyd, E. N. Brothers, K. N. Kudin, 
 V. N. Staroverov, T. A. Keith, R. Kobayashi, J. Normand, 
 K. Raghavachari, A. P. Rendell, J. C. Burant, S. S. Iyengar, 
 J. Tomasi, M. Cossi, J. M. Millam, M. Klene, C. Adamo, R. Cammi, 
 J. W. Ochterski, R. L. Martin, K. Morokuma, O. Farkas, 
 J. B. Foresman, and D. J. Fox, Gaussian, Inc., Wallingford CT, 2016.
 
 ******************************************
 Gaussian 16:  ES64L-G16RevA.03 25-Dec-2016
                 6-Nov-2025 
 ******************************************
 %nprocshared=64
 Will use up to   64 processors via shared memory.
 %mem=230GB
 %chk=M100032027_reduced_sp.chk
 ----------------------------------------------
 #p M062X/DEF2TZVPP scrf=(solvent=water) em=GD3
 ----------------------------------------------
 1/38=1,172=1/1;
 2/12=2,17=6,18=5,40=1/2;
 3/5=44,7=202,11=2,25=1,30=1,70=2201,72=1,74=-55,124=31/1,2,3;
 4//1;
 5/5=2,38=5,53=1/2;
 6/7=2,8=2,9=2,10=2,28=1/1;
 99/5=1,9=1/99;
 Leave Link    1 at Thu Nov  6 03:29:05 2025, MaxMem= 30870077440 cpu:               8.8 elap:               0.1
 (Enter /public/software/gauss/g16/l101.exe)
 -----------------------------------------
 Energy calculation for M100032027_reduced
 -----------------------------------------
 Symbolic Z-matrix:
 Charge = -1 Multiplicity = 2
 C                     7.37835   0.05937  -0.00265 
 C                     5.87033   0.05175   0.01335 
 C                     5.131     0.78685  -0.92401 
 C                     3.73767   0.75898  -0.92953 
 C                     3.02394  -0.00835   0.00955 
 C                     1.54259  -0.0321    0.01039 
 C                     0.80389   1.17502   0.01869 
 C                     1.24984   2.528     0.0972 
 C                     0.12869   3.33291   0.10814 
 C                    -1.01551   2.49229   0.05013 
 C                    -2.38629   2.84925   0.06185 
 C                    -2.89053   4.1279    0.07483 
 C                    -4.30659   4.38014   0.09506 
 O                    -5.2032    3.51473   0.10493 
 N                    -0.57373   1.17581  -0.00272 
 B                    -1.46977  -0.08301  -0.0687 
 F                    -2.19803  -0.10423  -1.27045 
 F                    -2.38366  -0.05309   1.00566 
 N                    -0.548    -1.3234    0.02663 
 C                    -0.91938  -2.66476  -0.03942 
 C                    -2.21141  -3.24984  -0.04836 
 C                    -3.47127  -2.71391   0.06917 
 C                    -4.63885  -3.55571   0.01671 
 O                    -4.65294  -4.78962  -0.15553 
 C                     0.26643  -3.44192  -0.10339 
 C                     1.34976  -2.58743  -0.07772 
 C                     0.83738  -1.26274   0.0031 
 C                     3.76686  -0.74284   0.95269 
 C                     5.15973  -0.70999   0.95233 
 H                     7.78877  -0.07016   1.00325 
 H                     7.76958  -0.75951  -0.61975 
 H                     7.76878   0.99311  -0.41774 
 H                     5.6539    1.38553  -1.66551 
 H                     3.19461   1.32546  -1.67943 
 H                     2.28132   2.8429    0.15209 
 H                     0.10277   4.41246   0.16715 
 H                    -3.10859   2.0385    0.06827 
 H                    -2.23571   4.99472   0.06944 
 H                    -4.59051   5.45016   0.10103 
 H                    -2.17263  -4.33211  -0.16333 
 H                    -3.63428  -1.6571    0.22833 
 H                    -5.60064  -3.02178   0.14451 
 H                     0.28102  -4.52254  -0.15882 
 H                     2.39579  -2.85059  -0.12207 
 H                     3.24613  -1.32465   1.70663 
 H                     5.70526  -1.27839   1.70137 
 
 ITRead=  0  0  0  0  0  0  0  0  0  0  0  0  0  0  0  0  0  0  0  0
 ITRead=  0  0  0  0  0  0  0  0  0  0  0  0  0  0  0  0  0  0  0  0
 ITRead=  0  0  0  0  0  0
 MicOpt= -1 -1 -1 -1 -1 -1 -1 -1 -1 -1 -1 -1 -1 -1 -1 -1 -1 -1 -1 -1
 MicOpt= -1 -1 -1 -1 -1 -1 -1 -1 -1 -1 -1 -1 -1 -1 -1 -1 -1 -1 -1 -1
 MicOpt= -1 -1 -1 -1 -1 -1
 NAtoms=     46 NQM=       46 NQMF=       0 NMMI=      0 NMMIF=      0
                NMic=       0 NMicF=      0.
                    Isotopes and Nuclear Properties:
 (Nuclear quadrupole moments (NQMom) in fm**2, nuclear magnetic moments (NMagM)
  in nuclear magnetons)

  Atom         1           2           3           4           5           6           7           8           9          10
 IAtWgt=          12          12          12          12          12          12          12          12          12          12
 AtmWgt=  12.0000000  12.0000000  12.0000000  12.0000000  12.0000000  12.0000000  12.0000000  12.0000000  12.0000000  12.0000000
 NucSpn=           0           0           0           0           0           0           0           0           0           0
 AtZEff=  -0.0000000  -0.0000000  -0.0000000  -0.0000000  -0.0000000  -0.0000000  -0.0000000  -0.0000000  -0.0000000  -0.0000000
 NQMom=    0.0000000   0.0000000   0.0000000   0.0000000   0.0000000   0.0000000   0.0000000   0.0000000   0.0000000   0.0000000
 NMagM=    0.0000000   0.0000000   0.0000000   0.0000000   0.0000000   0.0000000   0.0000000   0.0000000   0.0000000   0.0000000
 AtZNuc=   6.0000000   6.0000000   6.0000000   6.0000000   6.0000000   6.0000000   6.0000000   6.0000000   6.0000000   6.0000000

  Atom        11          12          13          14          15          16          17          18          19          20
 IAtWgt=          12          12          12          16          14          11          19          19          14          12
 AtmWgt=  12.0000000  12.0000000  12.0000000  15.9949146  14.0030740  11.0093053  18.9984033  18.9984033  14.0030740  12.0000000
 NucSpn=           0           0           0           0           2           3           1           1           2           0
 AtZEff=  -0.0000000  -0.0000000  -0.0000000  -0.0000000  -0.0000000  -0.0000000  -0.0000000  -0.0000000  -0.0000000  -0.0000000
 NQMom=    0.0000000   0.0000000   0.0000000   0.0000000   2.0440000   4.0590000   0.0000000   0.0000000   2.0440000   0.0000000
 NMagM=    0.0000000   0.0000000   0.0000000   0.0000000   0.4037610   2.6886370   2.6288670   2.6288670   0.4037610   0.0000000
 AtZNuc=   6.0000000   6.0000000   6.0000000   8.0000000   7.0000000   5.0000000   9.0000000   9.0000000   7.0000000   6.0000000

  Atom        21          22          23          24          25          26          27          28          29          30
 IAtWgt=          12          12          12          16          12          12          12          12          12           1
 AtmWgt=  12.0000000  12.0000000  12.0000000  15.9949146  12.0000000  12.0000000  12.0000000  12.0000000  12.0000000   1.0078250
 NucSpn=           0           0           0           0           0           0           0           0           0           1
 AtZEff=  -0.0000000  -0.0000000  -0.0000000  -0.0000000  -0.0000000  -0.0000000  -0.0000000  -0.0000000  -0.0000000  -0.0000000
 NQMom=    0.0000000   0.0000000   0.0000000   0.0000000   0.0000000   0.0000000   0.0000000   0.0000000   0.0000000   0.0000000
 NMagM=    0.0000000   0.0000000   0.0000000   0.0000000   0.0000000   0.0000000   0.0000000   0.0000000   0.0000000   2.7928460
 AtZNuc=   6.0000000   6.0000000   6.0000000   8.0000000   6.0000000   6.0000000   6.0000000   6.0000000   6.0000000   1.0000000

  Atom        31          32          33          34          35          36          37          38          39          40
 IAtWgt=           1           1           1           1           1           1           1           1           1           1
 AtmWgt=   1.0078250   1.0078250   1.0078250   1.0078250   1.0078250   1.0078250   1.0078250   1.0078250   1.0078250   1.0078250
 NucSpn=           1           1           1           1           1           1           1           1           1           1
 AtZEff=  -0.0000000  -0.0000000  -0.0000000  -0.0000000  -0.0000000  -0.0000000  -0.0000000  -0.0000000  -0.0000000  -0.0000000
 NQMom=    0.0000000   0.0000000   0.0000000   0.0000000   0.0000000   0.0000000   0.0000000   0.0000000   0.0000000   0.0000000
 NMagM=    2.7928460   2.7928460   2.7928460   2.7928460   2.7928460   2.7928460   2.7928460   2.7928460   2.7928460   2.7928460
 AtZNuc=   1.0000000   1.0000000   1.0000000   1.0000000   1.0000000   1.0000000   1.0000000   1.0000000   1.0000000   1.0000000

  Atom        41          42          43          44          45          46
 IAtWgt=           1           1           1           1           1           1
 AtmWgt=   1.0078250   1.0078250   1.0078250   1.0078250   1.0078250   1.0078250
 NucSpn=           1           1           1           1           1           1
 AtZEff=  -0.0000000  -0.0000000  -0.0000000  -0.0000000  -0.0000000  -0.0000000
 NQMom=    0.0000000   0.0000000   0.0000000   0.0000000   0.0000000   0.0000000
 NMagM=    2.7928460   2.7928460   2.7928460   2.7928460   2.7928460   2.7928460
 AtZNuc=   1.0000000   1.0000000   1.0000000   1.0000000   1.0000000   1.0000000
 Leave Link  101 at Thu Nov  6 03:29:05 2025, MaxMem= 30870077440 cpu:               3.7 elap:               0.1
 (Enter /public/software/gauss/g16/l202.exe)
                          Input orientation:                          
 ---------------------------------------------------------------------
 Center     Atomic      Atomic             Coordinates (Angstroms)
 Number     Number       Type             X           Y           Z
 ---------------------------------------------------------------------
      1          6           0        7.378349    0.059374   -0.002646
      2          6           0        5.870334    0.051746    0.013353
      3          6           0        5.130996    0.786845   -0.924011
      4          6           0        3.737673    0.758981   -0.929525
      5          6           0        3.023945   -0.008351    0.009545
      6          6           0        1.542589   -0.032095    0.010390
      7          6           0        0.803893    1.175022    0.018689
      8          6           0        1.249842    2.527997    0.097195
      9          6           0        0.128693    3.332910    0.108135
     10          6           0       -1.015510    2.492287    0.050134
     11          6           0       -2.386286    2.849250    0.061847
     12          6           0       -2.890525    4.127899    0.074832
     13          6           0       -4.306585    4.380138    0.095064
     14          8           0       -5.203202    3.514731    0.104925
     15          7           0       -0.573734    1.175809   -0.002718
     16          5           0       -1.469770   -0.083010   -0.068699
     17          9           0       -2.198035   -0.104228   -1.270454
     18          9           0       -2.383661   -0.053092    1.005663
     19          7           0       -0.548002   -1.323402    0.026632
     20          6           0       -0.919381   -2.664756   -0.039421
     21          6           0       -2.211410   -3.249841   -0.048359
     22          6           0       -3.471268   -2.713910    0.069172
     23          6           0       -4.638852   -3.555710    0.016709
     24          8           0       -4.652940   -4.789616   -0.155533
     25          6           0        0.266427   -3.441923   -0.103390
     26          6           0        1.349756   -2.587425   -0.077715
     27          6           0        0.837376   -1.262740    0.003095
     28          6           0        3.766856   -0.742843    0.952689
     29          6           0        5.159734   -0.709993    0.952331
     30          1           0        7.788769   -0.070161    1.003249
     31          1           0        7.769577   -0.759513   -0.619750
     32          1           0        7.768780    0.993114   -0.417743
     33          1           0        5.653896    1.385525   -1.665508
     34          1           0        3.194607    1.325457   -1.679429
     35          1           0        2.281319    2.842901    0.152085
     36          1           0        0.102772    4.412456    0.167146
     37          1           0       -3.108589    2.038500    0.068271
     38          1           0       -2.235714    4.994720    0.069437
     39          1           0       -4.590506    5.450159    0.101027
     40          1           0       -2.172634   -4.332114   -0.163325
     41          1           0       -3.634277   -1.657100    0.228334
     42          1           0       -5.600636   -3.021780    0.144514
     43          1           0        0.281015   -4.522540   -0.158819
     44          1           0        2.395787   -2.850586   -0.122074
     45          1           0        3.246128   -1.324652    1.706631
     46          1           0        5.705257   -1.278390    1.701373
 ---------------------------------------------------------------------
                    Distance matrix (angstroms):
                    1          2          3          4          5
     1  C    0.000000
     2  C    1.508119   0.000000
     3  C    2.535493   1.402014   0.000000
     4  C    3.821397   2.436687   1.393612   0.000000
     5  C    4.354948   2.847026   2.437935   1.407146   0.000000
     6  C    5.836491   4.328558   3.797424   2.515479   1.481547
     7  C    6.668478   5.189470   4.445580   3.111152   2.515768
     8  C    6.607773   5.242880   4.374680   3.220695   3.096479
     9  C    7.955239   6.613733   5.707084   4.552646   4.422243
    10  C    8.739492   7.305644   6.452676   5.153332   4.751004
    11  C   10.155573   8.717807   7.857160   6.546367   6.118760
    12  C   11.045754   9.662891   8.746721   7.502756   7.217602
    13  C   12.458581  11.059445  10.149788   8.881027   8.544169
    14  O   13.047854  11.602752  10.737584   9.412943   8.950260
    15  N    8.030072   6.541390   5.791720   4.429554   3.787569
    16  B    8.849511   7.341799   6.712549   5.344851   4.495016
    17  F    9.661327   8.171356   7.391125   6.007828   5.377422
    18  F    9.814590   8.314091   7.803794   6.471101   5.498769
    19  N    8.046115   6.564011   6.132527   4.859791   3.806371
    20  C    8.733531   7.313166   7.021617   5.848283   4.754861
    21  C   10.144776   8.730342   8.424519   7.227634   6.157885
    22  C   11.198681   9.742561   9.340270   8.063944   7.036434
    23  C   12.549196  11.111109  10.732785   9.469852   8.444067
    24  O   12.972586  11.584757  11.287731  10.089023   9.045568
    25  C    7.927715   6.604781   6.497686   5.511773   4.405233
    26  C    6.584460   5.235374   5.138063   4.198352   3.076060
    27  C    6.673256   5.201792   4.847215   3.656345   2.520837
    28  C    3.820877   2.436872   2.778997   2.408123   1.407450
    29  C    2.534987   1.402454   2.400419   2.778763   2.437774
    30  H    1.094097   2.162209   3.393015   4.564479   4.867732
    31  H    1.097476   2.160112   3.073420   4.319495   4.845749
    32  H    1.093898   2.162433   2.693837   4.070204   4.868158
    33  H    2.738161   2.155084   1.087042   2.146192   3.415455
    34  H    4.681695   3.412824   2.147175   1.085436   2.158889
    35  H    5.809620   4.548716   3.675052   2.762892   2.949822
    36  H    8.480105   7.232165   6.294340   5.269067   5.301097
    37  H   10.672293   9.196264   8.392975   7.035913   6.465371
    38  H   10.807083   9.494427   8.541754   7.390586   7.259361
    39  H   13.127254  11.771989  10.830734   9.613935   9.369288
    40  H   10.513432   9.161811   8.951279   7.838242   6.762340
    41  H   11.147985   9.659400   9.172283   7.843707   6.862810
    42  H   13.340510  11.876318  11.437451  10.131719   9.136869
    43  H    8.449288   7.224557   7.231694   6.359004   5.284876
    44  H    5.771313   4.529277   4.621188   3.934668   2.913796
    45  H    4.681069   3.412934   3.864120   3.395948   2.159193
    46  H    2.737249   2.155440   3.389338   3.865733   3.415365
                    6          7          8          9         10
     6  C    0.000000
     7  C    1.415229   0.000000
     8  C    2.578237   1.426736   0.000000
     9  C    3.651289   2.262825   1.380210   0.000000
    10  C    3.594156   2.246420   2.266122   1.420990   0.000000
    11  C    4.872459   3.603074   3.650463   2.561482   1.416540
    12  C    6.079655   4.729837   4.438786   3.122306   2.488276
    13  C    7.327196   6.032876   5.856988   4.557252   3.794361
    14  O    7.621982   6.447237   6.528053   5.334995   4.311051
    15  N    2.436807   1.377794   2.272405   2.271294   1.389631
    16  B    3.013827   2.599966   3.773747   3.775561   2.617752
    17  F    3.954495   3.508553   4.548288   4.373567   3.143916
    18  F    4.050487   3.555683   4.548591   4.310741   3.043654
    19  N    2.457297   2.840740   4.250941   4.705932   3.844294
    20  C    3.604814   4.209150   5.629287   6.090339   5.158716
    21  C    4.944679   5.354994   6.736829   6.988074   5.866167
    22  C    5.686330   5.779562   7.054591   7.037419   5.756353
    23  C    7.115203   7.211332   8.467271   8.378003   7.050390
    24  O    7.813201   8.086055   9.405008   9.429155   8.142439
    25  C    3.642590   4.649726   6.053700   6.779534   6.073037
    26  C    2.564110   3.803060   5.119387   6.047801   5.604846
    27  C    1.418403   2.438042   3.814272   4.651157   4.187556
    28  C    2.518026   3.650988   4.214929   5.528224   5.843945
    29  C    3.798755   4.837181   5.148115   6.509155   7.014428
    30  H    6.324712   7.162983   7.094288   8.429643   9.218997
    31  H    6.300920   7.257464   7.336803   8.698325   9.391523
    32  H    6.324540   6.980918   6.716962   8.007629   8.923574
    33  H    4.660593   5.138420   4.879350   6.120946   6.974907
    34  H    2.725362   2.936281   2.895618   4.077387   4.698720
    35  H    2.971767   2.232130   1.079871   2.208130   3.316987
    36  H    4.674578   3.315809   2.207226   1.081468   2.225151
    37  H    5.091578   4.006940   4.385928   3.486701   2.141782
    38  H    6.288714   4.881791   4.270198   2.890247   2.784141
    39  H    8.226675   6.883540   6.530598   5.172391   4.640279
    40  H    5.685352   6.262698   7.670876   8.007646   6.925096
    41  H    5.430293   5.268987   6.433261   6.250967   4.909899
    42  H    7.744796   7.658131   8.816536   8.556204   7.171975
    43  H    4.667365   5.724257   7.121393   7.861460   7.136696
    44  H    2.947776   4.331219   5.503674   6.590018   6.341364
    45  H    2.729466   3.880983   4.627996   5.828076   5.956053
    46  H    4.662669   5.733587   6.075582   7.409491   7.881199
                   11         12         13         14         15
    11  C    0.000000
    12  C    1.374543   0.000000
    13  C    2.456068   1.438492   0.000000
    14  O    2.894777   2.392772   1.246174   0.000000
    15  N    2.467776   3.753448   4.920514   5.187882   0.000000
    16  B    3.074930   4.446448   5.290938   5.187716   1.546564
    17  F    3.245535   4.494467   5.140055   4.900975   2.425696
    18  F    3.051948   4.313240   4.917352   4.635785   2.408914
    19  N    4.559776   5.933500   6.830959   6.714503   2.499516
    20  C    5.706691   7.073798   7.818041   7.520506   3.856262
    21  C    6.102593   7.409954   7.913716   7.398226   4.719157
    22  C    5.667979   6.866414   7.143105   6.465048   4.850854
    23  C    6.789669   7.880220   7.943187   7.093477   6.238015
    24  O    7.971026   9.092923   9.179714   8.326632   7.228386
    25  C    6.829572   8.203677   9.062917   8.851851   4.694620
    26  C    6.598100   7.943477   8.976134   8.956055   4.226981
    27  C    5.225314   6.554493   7.636155   7.702154   2.817408
    28  C    7.180382   8.295510   9.600047   9.965319   4.840945
    29  C    8.390685   9.433020  10.782186  11.223049   6.110730
    30  H   10.627368  11.512297  12.920044  13.507396   8.514450
    31  H   10.799505  11.747639  13.143845  13.677986   8.587027
    32  H   10.334438  11.121614  12.551866  13.225130   8.354829
    33  H    8.352890   9.140926  10.548863  11.204665   6.449204
    34  H    6.041552   6.925312   8.291428   8.860025   4.127245
    35  H    4.668482   5.329649   6.765118   7.514761   3.309756
    36  H    2.941107   3.008209   4.410065   5.381742   3.310951
    37  H    1.085854   2.100758   2.630434   2.562812   2.678575
    38  H    2.150761   1.086363   2.160295   3.316265   4.165509
    39  H    3.409523   2.153832   1.107064   2.030097   5.866454
    40  H    7.188069   8.493757   8.973508   8.416013   5.737551
    41  H    4.678930   5.834633   6.076019   5.405977   4.176803
    42  H    6.693868   7.646402   7.514347   6.548702   6.550662
    43  H    7.842606   9.216472  10.018393   9.733649   5.764212
    44  H    7.442458   8.756890   9.861659   9.915313   5.004414
    45  H    7.200754   8.369683   9.601315   9.867941   4.874990
    46  H    9.230305  10.284020  11.611897  12.021528   6.953614
                   16         17         18         19         20
    16  B    0.000000
    17  F    1.405359   0.000000
    18  F    1.410796   2.284246   0.000000
    19  N    1.548327   2.427226   2.437588   0.000000
    20  C    2.639924   3.115558   3.171294   1.393383   0.000000
    21  C    3.252578   3.374696   3.370436   2.546314   1.418359
    22  C    3.308570   3.197837   3.023220   3.237407   2.554669
    23  C    4.702129   4.418948   4.281618   4.660295   3.825103
    24  O    5.682627   5.405781   5.378909   5.375718   4.297438
    25  C    3.781254   4.309967   4.442650   2.273396   1.419233
    26  C    3.771194   4.491738   4.640577   2.282570   2.270777
    27  C    2.592265   3.489670   3.583779   1.386905   2.248033
    28  C    5.375952   6.397665   6.189299   4.451138   5.161284
    29  C    6.736908   7.710025   7.572131   5.814760   6.462222
    30  H    9.320396  10.242419  10.172445   8.486822   9.146090
    31  H    9.280455  10.010300  10.306757   8.361692   8.914299
    32  H    9.307560  10.063234  10.304984   8.644801   9.434367
    33  H    7.446678   8.001766   8.591106   6.976042   7.890305
    34  H    5.131729   5.593912   6.342491   4.892261   5.961235
    35  H    4.762391   5.547414   5.556744   5.037745   6.373024
    36  H    4.768409   5.268856   5.179438   5.774367   7.153628
    37  H    2.684268   2.685624   2.403951   4.226195   5.188916
    38  H    5.137032   5.272191   5.136031   6.539791   7.772526
    39  H    6.354822   6.201298   5.997858   7.888504   8.907790
    40  H    4.307883   4.370515   4.440844   3.424596   2.089516
    41  H    2.692783   2.592406   2.177412   3.110809   2.908217
    42  H    5.074040   4.700206   4.461347   5.331744   4.698452
    43  H    4.773133   5.186801   5.332212   3.310007   2.215077
    44  H    4.754457   5.473980   5.651627   3.319683   3.321401
    45  H    5.189717   6.323874   5.814013   4.149436   4.711268
    46  H    7.486194   8.524813   8.210722   6.473796   6.988434
                   21         22         23         24         25
    21  C    0.000000
    22  C    1.374146   0.000000
    23  C    2.447502   1.440358   0.000000
    24  O    2.888505   2.399041   1.245949   0.000000
    25  C    2.485880   3.811843   4.908068   5.100899   0.000000
    26  C    3.622369   4.824919   6.067118   6.394377   1.380010
    27  C    3.639549   4.546941   5.936916   6.527449   2.255252
    28  C    6.559482   7.553552   8.913148   9.407311   4.544594
    29  C    7.860405   8.904485  10.246257  10.684534   5.702845
    30  H   10.546081  11.603893  12.944809  13.357101   8.317395
    31  H   10.302831  11.430261  12.735498  13.068135   7.984937
    32  H   10.850959  11.845581  13.222325  13.704300   8.720876
    33  H    9.271722  10.152985  11.540638  12.109635   7.400628
    34  H    7.267652   7.987990   9.384336  10.064809   5.812577
    35  H    7.572734   7.998580   9.425992  10.316680   6.604852
    36  H    8.007039   7.972983   9.273473  10.363351   7.860741
    37  H    5.365173   4.766229   5.799961   7.004161   6.438574
    38  H    8.245438   7.807021   8.881875  10.081013   8.801564
    39  H    9.020666   8.240493   9.006393  10.243179  10.134136
    40  H    1.089053   2.087843   2.591804   2.522159   2.597124
    41  H    2.153586   1.081088   2.158397   3.316276   4.302456
    42  H    3.402362   2.152828   1.107449   2.028152   5.887309
    43  H    2.800740   4.171660   5.017037   4.941179   1.082136
    44  H    4.625052   5.871762   7.071252   7.310644   2.210023
    45  H    6.047401   7.052285   8.366981   8.824336   4.078925
    46  H    8.343968   9.430451  10.724965  11.093649   6.125269
                   26         27         28         29         30
    26  C    0.000000
    27  C    1.422622   0.000000
    28  C    3.210387   3.123119   0.000000
    29  C    4.370547   4.459749   1.393265   0.000000
    30  H    6.997570   7.123512   4.078093   2.706253   0.000000
    31  H    6.696952   6.978294   4.300537   3.047158   1.763434
    32  H    7.357972   7.301393   4.572420   3.403645   1.774872
    33  H    6.068858   5.744250   3.865983   3.389465   3.714696
    34  H    4.612983   3.884094   3.396083   3.864058   5.500076
    35  H    5.514441   4.354705   3.962997   4.642060   6.288276
    36  H    7.114300   5.724893   6.373358   7.240778   8.936860
    37  H    6.426300   5.145199   7.469258   8.757907  11.138808
    38  H    8.388455   6.971663   8.350486   9.381679  11.270106
    39  H    9.996070   8.633337  10.436671  11.564574  13.584343
    40  H    3.931730   4.302199   7.028933   8.253973  10.897462
    41  H    5.079346   4.494656   7.492485   8.874447  11.558756
    42  H    6.967496   6.675494   9.674534  11.035510  13.737745
    43  H    2.212116   3.310899   5.260480   6.290633   8.805706
    44  H    1.079538   2.228355   2.734507   3.657306   6.171010
    45  H    2.893910   2.950924   1.085398   2.146779   4.764880
    46  H    4.883556   5.155643   2.145865   1.087076   2.507632
                   31         32         33         34         35
    31  H    0.000000
    32  H    1.764230   0.000000
    33  H    3.189185   2.486692   0.000000
    34  H    5.138129   4.756612   2.460062   0.000000
    35  H    6.610151   5.818818   4.099008   2.547778   0.000000
    36  H    9.281614   8.414373   6.583002   4.743295   2.685106
    37  H   11.253299  10.938290   8.956199   6.579754   5.450247
    38  H   11.562527  10.786107   8.847727   6.783097   5.004073
    39  H   13.851036  13.148624  11.161974   8.988391   7.349992
    40  H   10.574467  11.280713   9.808288   7.944429   8.450918
    41  H   11.470519  11.724792   9.955620   7.692130   7.433041
    42  H   13.581773  13.970569  12.221498   9.979055   9.824447
    43  H    8.393533   9.303553   8.126696   6.708229   7.638560
    44  H    5.787736   6.612904   5.562562   4.528002   5.701233
    45  H    5.117912   5.508120   4.951134   4.300132   4.551480
    46  H    3.149327   3.729412   4.293596   4.951081   5.577516
                   36         37         38         39         40
    36  H    0.000000
    37  H    3.994782   0.000000
    38  H    2.411865   3.082393   0.000000
    39  H    4.807084   3.719754   2.398639   0.000000
    40  H    9.041802   6.443165   9.329951  10.080122   0.000000
    41  H    7.128028   3.736232   6.799113   7.172427   3.073353
    42  H    9.370018   5.641147   8.694401   8.532057   3.682789
    43  H    8.942716   7.388385   9.847043  11.101980   2.461031
    44  H    7.621899   7.364615   9.112426  10.851748   4.802822
    45  H    6.720499   7.374106   8.524404  10.482789   6.473372
    46  H    8.131877   9.557859  10.250568  12.403113   8.652369
                   41         42         43         44         45
    41  H    0.000000
    42  H    2.394983   0.000000
    43  H    4.867252   6.077673   0.000000
    44  H    6.157018   8.002697   2.696116   0.000000
    45  H    7.045272   9.142521   4.743236   2.528975   0.000000
    46  H    9.462566  11.544974   6.588416   4.092597   2.459570
                   46
    46  H    0.000000
 Stoichiometry    C22H17BF2N2O2(1-,2)
 Framework group  C1[X(C22H17BF2N2O2)]
 Deg. of freedom   132
 Full point group                 C1      NOp   1
 Largest Abelian subgroup         C1      NOp   1
 Largest concise Abelian subgroup C1      NOp   1
                         Standard orientation:                         
 ---------------------------------------------------------------------
 Center     Atomic      Atomic             Coordinates (Angstroms)
 Number     Number       Type             X           Y           Z
 ---------------------------------------------------------------------
      1          6           0       -7.378349    0.059374    0.002646
      2          6           0       -5.870334    0.051746   -0.013353
      3          6           0       -5.130996    0.786845    0.924011
      4          6           0       -3.737673    0.758981    0.929525
      5          6           0       -3.023945   -0.008351   -0.009545
      6          6           0       -1.542589   -0.032095   -0.010390
      7          6           0       -0.803893    1.175022   -0.018689
      8          6           0       -1.249842    2.527997   -0.097195
      9          6           0       -0.128693    3.332910   -0.108135
     10          6           0        1.015510    2.492287   -0.050134
     11          6           0        2.386286    2.849250   -0.061847
     12          6           0        2.890525    4.127899   -0.074832
     13          6           0        4.306585    4.380138   -0.095064
     14          8           0        5.203202    3.514731   -0.104925
     15          7           0        0.573734    1.175809    0.002718
     16          5           0        1.469770   -0.083010    0.068699
     17          9           0        2.198035   -0.104228    1.270454
     18          9           0        2.383661   -0.053092   -1.005663
     19          7           0        0.548002   -1.323402   -0.026632
     20          6           0        0.919381   -2.664756    0.039421
     21          6           0        2.211410   -3.249841    0.048359
     22          6           0        3.471268   -2.713910   -0.069172
     23          6           0        4.638852   -3.555710   -0.016709
     24          8           0        4.652940   -4.789616    0.155533
     25          6           0       -0.266427   -3.441923    0.103390
     26          6           0       -1.349756   -2.587425    0.077715
     27          6           0       -0.837376   -1.262740   -0.003095
     28          6           0       -3.766856   -0.742843   -0.952689
     29          6           0       -5.159734   -0.709993   -0.952331
     30          1           0       -7.788769   -0.070161   -1.003249
     31          1           0       -7.769577   -0.759513    0.619750
     32          1           0       -7.768780    0.993114    0.417743
     33          1           0       -5.653896    1.385525    1.665508
     34          1           0       -3.194607    1.325457    1.679429
     35          1           0       -2.281319    2.842901   -0.152085
     36          1           0       -0.102772    4.412456   -0.167146
     37          1           0        3.108589    2.038500   -0.068271
     38          1           0        2.235714    4.994720   -0.069437
     39          1           0        4.590506    5.450159   -0.101027
     40          1           0        2.172634   -4.332114    0.163325
     41          1           0        3.634277   -1.657100   -0.228334
     42          1           0        5.600636   -3.021780   -0.144514
     43          1           0       -0.281015   -4.522540    0.158819
     44          1           0       -2.395787   -2.850586    0.122074
     45          1           0       -3.246128   -1.324652   -1.706631
     46          1           0       -5.705257   -1.278390   -1.701373
 ---------------------------------------------------------------------
 Rotational constants (GHZ):           0.2083974           0.1100270           0.0742730
 Leave Link  202 at Thu Nov  6 03:29:05 2025, MaxMem= 30870077440 cpu:               0.3 elap:               0.0
 (Enter /public/software/gauss/g16/l301.exe)
 Standard basis: def2TZVPP (5D, 7F)
 Ernie: Thresh=  0.10000D-02 Tol=  0.10000D-05 Strict=F.
 There are  1299 symmetry adapted cartesian basis functions of A   symmetry.
 There are  1137 symmetry adapted basis functions of A   symmetry.
  1137 basis functions,  1768 primitive gaussians,  1299 cartesian basis functions
   102 alpha electrons      101 beta electrons
       nuclear repulsion energy      2565.9479356693 Hartrees.
 IExCor= 4336 DFT=T Ex+Corr=M062X ExCW=0 ScaHFX=  0.540000
 ScaDFX=  1.000000  1.000000  1.000000  1.000000 ScalE2=  1.000000  1.000000
 IRadAn=      5 IRanWt=     -1 IRanGd=            0 ICorTp=0 IEmpDi=131
 NAtoms=   46 NActive=   46 NUniq=   46 SFac= 1.00D+00 NAtFMM=   60 NAOKFM=F Big=F
 Integral buffers will be    131072 words long.
 Raffenetti 2 integral format.
 Two-electron integral symmetry is turned on.
 R6Disp:  Grimme-D3 Dispersion energy=       -0.0032422113 Hartrees.
 Nuclear repulsion after empirical dispersion term =     2565.9446934580 Hartrees.
 ------------------------------------------------------------------------------
 Polarizable Continuum Model (PCM)
 =================================
 Model                : PCM.
 Atomic radii         : UFF (Universal Force Field).
 Polarization charges : Total charges.
 Charge compensation  : None.
 Solution method      : On-the-fly selection.
 Cavity type          : Scaled VdW (van der Waals Surface) (Alpha=1.100).
 Cavity algorithm     : GePol (No added spheres)
                        Default sphere list used, NSphG=   46.
                        Lebedev-Laikov grids with approx.  5.0 points / Ang**2.
                        Smoothing algorithm: York/Karplus (Gamma=1.0000).
                        Polarization charges: spherical gaussians, with
                                              point-specific exponents (IZeta= 3).
                        Self-potential: point-specific (ISelfS= 7).
                        Self-field    : sphere-specific E.n sum rule (ISelfD= 2).
 Solvent              : Water, Eps=  78.355300 Eps(inf)=   1.777849
 ------------------------------------------------------------------------------
 GePol: Number of generator spheres                  =      46
 GePol: Total number of spheres                      =      46
 GePol: Number of exposed spheres                    =      46 (100.00%)
 GePol: Number of points                             =    3542
 GePol: Average weight of points                     =       0.13
 GePol: Minimum weight of points                     =   0.26D-10
 GePol: Maximum weight of points                     =    0.20577
 GePol: Number of points with low weight             =     204
 GePol: Fraction of low-weight points (<1% of avg)   =       5.76%
 GePol: Cavity surface area                          =    455.528 Ang**2
 GePol: Cavity volume                                =    511.748 Ang**3
 Leave Link  301 at Thu Nov  6 03:29:06 2025, MaxMem= 30870077440 cpu:               4.0 elap:               0.1
 (Enter /public/software/gauss/g16/l302.exe)
 NPDir=0 NMtPBC=     1 NCelOv=     1 NCel=       1 NClECP=     1 NCelD=      1
         NCelK=      1 NCelE2=     1 NClLst=     1 CellRange=     0.0.
 One-electron integrals computed using PRISM.
 One-electron integral symmetry used in STVInt
   1 Symmetry operations used in ECPInt.
 ECPInt:  NShTT=   88831 NPrTT=  257375 LenC2=   68430 LenP2D=  138819.
 LDataN:  DoStor=T MaxTD1= 6 Len=  172
 NBasis=  1137 RedAO= T EigKep=  6.48D-06  NBF=  1137
 NBsUse=  1137 1.00D-06 EigRej= -1.00D+00 NBFU=  1137
 Precomputing XC quadrature grid using
 IXCGrd= 4 IRadAn=           5 IRanWt=          -1 IRanGd=           0 AccXCQ= 0.00D+00.
 Generated NRdTot=       0 NPtTot=           0 NUsed=           0 NTot=          32
 NSgBfM=  1222  1222  1222  1222  1222 MxSgAt=    46 MxSgA2=    46.
 Leave Link  302 at Thu Nov  6 03:29:09 2025, MaxMem= 30870077440 cpu:             191.5 elap:               3.0
 (Enter /public/software/gauss/g16/l303.exe)
 DipDrv:  MaxL=1.
 Leave Link  303 at Thu Nov  6 03:29:09 2025, MaxMem= 30870077440 cpu:              12.2 elap:               0.2
 (Enter /public/software/gauss/g16/l401.exe)
 ExpMin= 6.06D-02 ExpMax= 3.55D+04 ExpMxC= 1.21D+03 IAcc=3 IRadAn=         5 AccDes= 0.00D+00
 Harris functional with IExCor= 1009 and IRadAn=       5 diagonalized for initial guess.
 HarFok:  IExCor= 1009 AccDes= 0.00D+00 IRadAn=         5 IDoV= 1 UseB2=F ITyADJ=14
 ICtDFT=  3500011 ScaDFX=  1.000000  1.000000  1.000000  1.000000
 FoFCou: FMM=F IPFlag=           0 FMFlag=      100000 FMFlg1=           0
         NFxFlg=           0 DoJE=T BraDBF=F KetDBF=T FulRan=T
         wScrn=  0.000000 ICntrl=       500 IOpCl=  0 I1Cent=   200000004 NGrid=           0
         NMat0=    1 NMatS0=      1 NMatT0=    0 NMatD0=    1 NMtDS0=    0 NMtDT0=    0
 Petite list used in FoFCou.
 Harris En= -1332.72938291000    
 JPrj=0 DoOrth=F DoCkMO=F.
 Initial guess <Sx>= 0.0000 <Sy>= 0.0000 <Sz>= 0.5000 <S**2>= 0.7500 S= 0.5000
 Leave Link  401 at Thu Nov  6 03:29:14 2025, MaxMem= 30870077440 cpu:             313.8 elap:               5.0
 (Enter /public/software/gauss/g16/l502.exe)
 Integral symmetry usage will be decided dynamically.
 UHF open shell SCF:
 Using DIIS extrapolation, IDIIS=  1040.
 NGot= 30870077440 LenX= 30866608552 LenY= 30864919852
 Requested convergence on RMS density matrix=1.00D-08 within 128 cycles.
 Requested convergence on MAX density matrix=1.00D-06.
 Requested convergence on             energy=1.00D-06.
 No special actions if energy rises.
 Fock matrices will be formed incrementally for  20 cycles.

 Cycle   1  Pass 1  IDiag  1:
 FoFJK:  IHMeth= 1 ICntrl=       0 DoSepK=F KAlg= 0 I1Cent=           0 FoldK=F
 IRaf= 680000000 NMat=       1 IRICut=       1 DoRegI=T DoRafI=F ISym2E= 0 IDoP0=0 IntGTp=1.
 FoFCou: FMM=F IPFlag=           0 FMFlag=      100000 FMFlg1=           0
         NFxFlg=           0 DoJE=F BraDBF=F KetDBF=F FulRan=T
         wScrn=  0.000000 ICntrl=         0 IOpCl=  1 I1Cent=           0 NGrid=           0
         NMat0=    1 NMatS0=      1 NMatT0=    0 NMatD0=    1 NMtDS0=    0 NMtDT0=    0
 Symmetry not used in FoFCou.
 Inv3:  Mode=1 IEnd=    37637292.
 Iteration    1 A*A^-1 deviation from unit magnitude is 9.55D-15 for    744.
 Iteration    1 A*A^-1 deviation from orthogonality  is 3.37D-15 for   3225    436.
 Iteration    1 A^-1*A deviation from unit magnitude is 1.02D-14 for    744.
 Iteration    1 A^-1*A deviation from orthogonality  is 4.83D-15 for   3101    250.
 E= -1332.70913088465    
 DIIS: error= 2.33D-02 at cycle   1 NSaved=   1.
 NSaved= 1 IEnMin= 1 EnMin= -1332.70913088465     IErMin= 1 ErrMin= 2.33D-02
 ErrMax= 2.33D-02  0.00D+00 EMaxC= 1.00D-01 BMatC= 3.47D+00 BMatP= 3.47D+00
 IDIUse=3 WtCom= 7.67D-01 WtEn= 2.33D-01
 Coeff-Com:  0.100D+01
 Coeff-En:   0.100D+01
 Coeff:      0.100D+01
 Gap=     0.138 Goal=   None    Shift=    0.000
 Gap=     0.134 Goal=   None    Shift=    0.000
 GapD=    0.134 DampG=1.000 DampE=0.500 DampFc=0.5000 IDamp=-1.
 Damping current iteration by 5.00D-01
 RMSDP=3.45D-03 MaxDP=8.89D-01              OVMax= 2.09D-01

 Cycle   2  Pass 1  IDiag  1:
 RMSU=  1.72D-03    CP:  1.02D+00
 E= -1333.04282696419     Delta-E=       -0.333696079547 Rises=F Damp=T
 DIIS: error= 4.83D-03 at cycle   2 NSaved=   2.
 NSaved= 2 IEnMin= 2 EnMin= -1333.04282696419     IErMin= 2 ErrMin= 4.83D-03
 ErrMax= 4.83D-03  0.00D+00 EMaxC= 1.00D-01 BMatC= 3.36D-01 BMatP= 3.47D+00
 IDIUse=3 WtCom= 9.52D-01 WtEn= 4.83D-02
 Coeff-Com: -0.112D+00 0.111D+01
 Coeff-En:   0.000D+00 0.100D+01
 Coeff:     -0.106D+00 0.111D+01
 Gap=     0.133 Goal=   None    Shift=    0.000
 Gap=     0.149 Goal=   None    Shift=    0.000
 RMSDP=1.15D-03 MaxDP=2.50D-01 DE=-3.34D-01 OVMax= 1.13D-01

 Cycle   3  Pass 1  IDiag  1:
 RMSU=  8.88D-04    CP:  9.83D-01  5.93D-01
 E= -1333.33887956772     Delta-E=       -0.296052603524 Rises=F Damp=F
 DIIS: error= 3.87D-03 at cycle   3 NSaved=   3.
 NSaved= 3 IEnMin= 3 EnMin= -1333.33887956772     IErMin= 3 ErrMin= 3.87D-03
 ErrMax= 3.87D-03  0.00D+00 EMaxC= 1.00D-01 BMatC= 1.80D-01 BMatP= 3.36D-01
 IDIUse=3 WtCom= 9.61D-01 WtEn= 3.87D-02
 Coeff-Com: -0.127D+00 0.505D+00 0.622D+00
 Coeff-En:   0.000D+00 0.000D+00 0.100D+01
 Coeff:     -0.122D+00 0.486D+00 0.637D+00
 Gap=     0.134 Goal=   None    Shift=    0.000
 Gap=     0.142 Goal=   None    Shift=    0.000
 RMSDP=3.86D-04 MaxDP=9.63D-02 DE=-2.96D-01 OVMax= 6.88D-02

 Cycle   4  Pass 1  IDiag  1:
 RMSU=  2.50D-04    CP:  9.93D-01  7.55D-01  9.19D-01
 E= -1333.36919674688     Delta-E=       -0.030317179158 Rises=F Damp=F
 DIIS: error= 1.58D-03 at cycle   4 NSaved=   4.
 NSaved= 4 IEnMin= 4 EnMin= -1333.36919674688     IErMin= 4 ErrMin= 1.58D-03
 ErrMax= 1.58D-03  0.00D+00 EMaxC= 1.00D-01 BMatC= 2.61D-02 BMatP= 1.80D-01
 IDIUse=3 WtCom= 9.84D-01 WtEn= 1.58D-02
 Coeff-Com: -0.401D-01 0.987D-01 0.318D+00 0.623D+00
 Coeff-En:   0.000D+00 0.000D+00 0.885D-01 0.912D+00
 Coeff:     -0.395D-01 0.972D-01 0.314D+00 0.628D+00
 Gap=     0.133 Goal=   None    Shift=    0.000
 Gap=     0.145 Goal=   None    Shift=    0.000
 RMSDP=1.49D-04 MaxDP=3.81D-02 DE=-3.03D-02 OVMax= 1.82D-02

 Cycle   5  Pass 1  IDiag  1:
 RMSU=  6.91D-05    CP:  9.88D-01  6.96D-01  9.48D-01  6.97D-01
 E= -1333.37463382053     Delta-E=       -0.005437073650 Rises=F Damp=F
 DIIS: error= 3.30D-04 at cycle   5 NSaved=   5.
 NSaved= 5 IEnMin= 5 EnMin= -1333.37463382053     IErMin= 5 ErrMin= 3.30D-04
 ErrMax= 3.30D-04  0.00D+00 EMaxC= 1.00D-01 BMatC= 8.59D-04 BMatP= 2.61D-02
 IDIUse=3 WtCom= 9.97D-01 WtEn= 3.30D-03
 Coeff-Com: -0.104D-01 0.185D-01 0.102D+00 0.250D+00 0.641D+00
 Coeff-En:   0.000D+00 0.000D+00 0.000D+00 0.000D+00 0.100D+01
 Coeff:     -0.104D-01 0.184D-01 0.101D+00 0.249D+00 0.642D+00
 Gap=     0.135 Goal=   None    Shift=    0.000
 Gap=     0.146 Goal=   None    Shift=    0.000
 RMSDP=2.41D-05 MaxDP=3.50D-03 DE=-5.44D-03 OVMax= 7.37D-03

 Cycle   6  Pass 1  IDiag  1:
 RMSU=  2.21D-05    CP:  9.88D-01  6.95D-01  9.51D-01  7.03D-01  1.13D+00
 E= -1333.37494036534     Delta-E=       -0.000306544809 Rises=F Damp=F
 DIIS: error= 1.97D-04 at cycle   6 NSaved=   6.
 NSaved= 6 IEnMin= 6 EnMin= -1333.37494036534     IErMin= 6 ErrMin= 1.97D-04
 ErrMax= 1.97D-04  0.00D+00 EMaxC= 1.00D-01 BMatC= 1.60D-04 BMatP= 8.59D-04
 IDIUse=3 WtCom= 9.98D-01 WtEn= 1.97D-03
 Coeff-Com:  0.262D-02-0.791D-02-0.135D-01-0.189D-01 0.211D+00 0.826D+00
 Coeff-En:   0.000D+00 0.000D+00 0.000D+00 0.000D+00 0.000D+00 0.100D+01
 Coeff:      0.262D-02-0.790D-02-0.135D-01-0.189D-01 0.211D+00 0.827D+00
 Gap=     0.137 Goal=   None    Shift=    0.000
 Gap=     0.148 Goal=   None    Shift=    0.000
 RMSDP=2.53D-05 MaxDP=4.59D-03 DE=-3.07D-04 OVMax= 9.16D-03

 Cycle   7  Pass 1  IDiag  1:
 RMSU=  1.24D-05    CP:  9.88D-01  6.89D-01  9.56D-01  7.01D-01  1.36D+00
                    CP:  1.43D+00
 E= -1333.37508723933     Delta-E=       -0.000146873997 Rises=F Damp=F
 DIIS: error= 1.22D-04 at cycle   7 NSaved=   7.
 NSaved= 7 IEnMin= 7 EnMin= -1333.37508723933     IErMin= 7 ErrMin= 1.22D-04
 ErrMax= 1.22D-04  0.00D+00 EMaxC= 1.00D-01 BMatC= 5.50D-05 BMatP= 1.60D-04
 IDIUse=3 WtCom= 9.99D-01 WtEn= 1.22D-03
 Coeff-Com:  0.439D-02-0.908D-02-0.372D-01-0.929D-01-0.154D+00 0.256D+00
 Coeff-Com:  0.103D+01
 Coeff-En:   0.000D+00 0.000D+00 0.000D+00 0.000D+00 0.000D+00 0.000D+00
 Coeff-En:   0.100D+01
 Coeff:      0.439D-02-0.907D-02-0.372D-01-0.928D-01-0.154D+00 0.256D+00
 Coeff:      0.103D+01
 Gap=     0.138 Goal=   None    Shift=    0.000
 Gap=     0.149 Goal=   None    Shift=    0.000
 RMSDP=2.23D-05 MaxDP=3.39D-03 DE=-1.47D-04 OVMax= 8.19D-03

 Cycle   8  Pass 1  IDiag  1:
 RMSU=  5.89D-06    CP:  9.88D-01  6.84D-01  9.60D-01  7.00D-01  1.56D+00
                    CP:  1.97D+00  1.65D+00
 E= -1333.37516879180     Delta-E=       -0.000081552469 Rises=F Damp=F
 DIIS: error= 5.75D-05 at cycle   8 NSaved=   8.
 NSaved= 8 IEnMin= 8 EnMin= -1333.37516879180     IErMin= 8 ErrMin= 5.75D-05
 ErrMax= 5.75D-05  0.00D+00 EMaxC= 1.00D-01 BMatC= 1.73D-05 BMatP= 5.50D-05
 IDIUse=1 WtCom= 1.00D+00 WtEn= 0.00D+00
 Coeff-Com:  0.111D-02-0.149D-02-0.108D-01-0.345D-01-0.132D+00-0.131D+00
 Coeff-Com:  0.444D+00 0.865D+00
 Coeff:      0.111D-02-0.149D-02-0.108D-01-0.345D-01-0.132D+00-0.131D+00
 Coeff:      0.444D+00 0.865D+00
 Gap=     0.139 Goal=   None    Shift=    0.000
 Gap=     0.150 Goal=   None    Shift=    0.000
 RMSDP=1.06D-05 MaxDP=1.41D-03 DE=-8.16D-05 OVMax= 4.61D-03

 Cycle   9  Pass 1  IDiag  1:
 RMSU=  3.15D-06    CP:  9.88D-01  6.83D-01  9.61D-01  7.00D-01  1.65D+00
                    CP:  2.21D+00  1.99D+00  1.52D+00
 E= -1333.37519030814     Delta-E=       -0.000021516335 Rises=F Damp=F
 DIIS: error= 2.60D-05 at cycle   9 NSaved=   9.
 NSaved= 9 IEnMin= 9 EnMin= -1333.37519030814     IErMin= 9 ErrMin= 2.60D-05
 ErrMax= 2.60D-05  0.00D+00 EMaxC= 1.00D-01 BMatC= 4.24D-06 BMatP= 1.73D-05
 IDIUse=1 WtCom= 1.00D+00 WtEn= 0.00D+00
 Coeff-Com: -0.836D-03 0.205D-02 0.671D-02 0.130D-01-0.910D-02-0.113D+00
 Coeff-Com: -0.123D+00 0.334D+00 0.890D+00
 Coeff:     -0.836D-03 0.205D-02 0.671D-02 0.130D-01-0.910D-02-0.113D+00
 Coeff:     -0.123D+00 0.334D+00 0.890D+00
 Gap=     0.139 Goal=   None    Shift=    0.000
 Gap=     0.150 Goal=   None    Shift=    0.000
 RMSDP=4.41D-06 MaxDP=5.58D-04 DE=-2.15D-05 OVMax= 2.07D-03

 Cycle  10  Pass 1  IDiag  1:
 RMSU=  1.68D-06    CP:  9.88D-01  6.83D-01  9.61D-01  7.01D-01  1.67D+00
                    CP:  2.31D+00  2.15D+00  1.88D+00  1.37D+00
 E= -1333.37519541802     Delta-E=       -0.000005109881 Rises=F Damp=F
 DIIS: error= 1.95D-05 at cycle  10 NSaved=  10.
 NSaved=10 IEnMin=10 EnMin= -1333.37519541802     IErMin=10 ErrMin= 1.95D-05
 ErrMax= 1.95D-05  0.00D+00 EMaxC= 1.00D-01 BMatC= 9.01D-07 BMatP= 4.24D-06
 IDIUse=1 WtCom= 1.00D+00 WtEn= 0.00D+00
 Coeff-Com: -0.480D-03 0.948D-03 0.422D-02 0.112D-01 0.211D-01-0.131D-01
 Coeff-Com: -0.124D+00-0.532D-01 0.262D+00 0.892D+00
 Coeff:     -0.480D-03 0.948D-03 0.422D-02 0.112D-01 0.211D-01-0.131D-01
 Coeff:     -0.124D+00-0.532D-01 0.262D+00 0.892D+00
 Gap=     0.140 Goal=   None    Shift=    0.000
 Gap=     0.150 Goal=   None    Shift=    0.000
 RMSDP=1.72D-06 MaxDP=1.82D-04 DE=-5.11D-06 OVMax= 1.04D-03

 Cycle  11  Pass 1  IDiag  1:
 RMSU=  8.78D-07    CP:  9.88D-01  6.83D-01  9.62D-01  7.02D-01  1.67D+00
                    CP:  2.33D+00  2.18D+00  2.00D+00  1.66D+00  1.39D+00
 E= -1333.37519684721     Delta-E=       -0.000001429197 Rises=F Damp=F
 DIIS: error= 1.16D-05 at cycle  11 NSaved=  11.
 NSaved=11 IEnMin=11 EnMin= -1333.37519684721     IErMin=11 ErrMin= 1.16D-05
 ErrMax= 1.16D-05  0.00D+00 EMaxC= 1.00D-01 BMatC= 3.49D-07 BMatP= 9.01D-07
 IDIUse=1 WtCom= 1.00D+00 WtEn= 0.00D+00
 Coeff-Com:  0.140D-03-0.388D-03-0.956D-03-0.102D-02 0.782D-02 0.305D-01
 Coeff-Com:  0.667D-02-0.990D-01-0.222D+00 0.264D+00 0.101D+01
 Coeff:      0.140D-03-0.388D-03-0.956D-03-0.102D-02 0.782D-02 0.305D-01
 Coeff:      0.667D-02-0.990D-01-0.222D+00 0.264D+00 0.101D+01
 Gap=     0.140 Goal=   None    Shift=    0.000
 Gap=     0.150 Goal=   None    Shift=    0.000
 RMSDP=1.45D-06 MaxDP=2.95D-04 DE=-1.43D-06 OVMax= 7.48D-04

 Cycle  12  Pass 1  IDiag  1:
 RMSU=  5.57D-07    CP:  9.88D-01  6.84D-01  9.61D-01  7.03D-01  1.67D+00
                    CP:  2.33D+00  2.18D+00  2.06D+00  1.82D+00  1.79D+00
                    CP:  1.70D+00
 E= -1333.37519751669     Delta-E=       -0.000000669475 Rises=F Damp=F
 DIIS: error= 7.93D-06 at cycle  12 NSaved=  12.
 NSaved=12 IEnMin=12 EnMin= -1333.37519751669     IErMin=12 ErrMin= 7.93D-06
 ErrMax= 7.93D-06  0.00D+00 EMaxC= 1.00D-01 BMatC= 1.19D-07 BMatP= 3.49D-07
 IDIUse=1 WtCom= 1.00D+00 WtEn= 0.00D+00
 Coeff-Com:  0.241D-03-0.509D-03-0.196D-02-0.488D-02-0.594D-02 0.148D-01
 Coeff-Com:  0.491D-01-0.498D-02-0.194D+00-0.252D+00 0.339D+00 0.106D+01
 Coeff:      0.241D-03-0.509D-03-0.196D-02-0.488D-02-0.594D-02 0.148D-01
 Coeff:      0.491D-01-0.498D-02-0.194D+00-0.252D+00 0.339D+00 0.106D+01
 Gap=     0.139 Goal=   None    Shift=    0.000
 Gap=     0.150 Goal=   None    Shift=    0.000
 RMSDP=1.02D-06 MaxDP=1.23D-04 DE=-6.69D-07 OVMax= 6.65D-04

 Cycle  13  Pass 1  IDiag  1:
 RMSU=  2.99D-07    CP:  9.88D-01  6.84D-01  9.61D-01  7.03D-01  1.67D+00
                    CP:  2.34D+00  2.19D+00  2.09D+00  1.92D+00  2.11D+00
                    CP:  2.37D+00  1.62D+00
 E= -1333.37519780450     Delta-E=       -0.000000287810 Rises=F Damp=F
 DIIS: error= 2.95D-06 at cycle  13 NSaved=  13.
 NSaved=13 IEnMin=13 EnMin= -1333.37519780450     IErMin=13 ErrMin= 2.95D-06
 ErrMax= 2.95D-06  0.00D+00 EMaxC= 1.00D-01 BMatC= 2.88D-08 BMatP= 1.19D-07
 IDIUse=1 WtCom= 1.00D+00 WtEn= 0.00D+00
 Coeff-Com:  0.248D-04-0.289D-04-0.243D-03-0.113D-02-0.391D-02-0.496D-02
 Coeff-Com:  0.112D-01 0.279D-01 0.832D-02-0.151D+00-0.190D+00 0.317D+00
 Coeff-Com:  0.987D+00
 Coeff:      0.248D-04-0.289D-04-0.243D-03-0.113D-02-0.391D-02-0.496D-02
 Coeff:      0.112D-01 0.279D-01 0.832D-02-0.151D+00-0.190D+00 0.317D+00
 Coeff:      0.987D+00
 Gap=     0.139 Goal=   None    Shift=    0.000
 Gap=     0.150 Goal=   None    Shift=    0.000
 RMSDP=5.37D-07 MaxDP=5.20D-05 DE=-2.88D-07 OVMax= 3.08D-04

 Cycle  14  Pass 1  IDiag  1:
 RMSU=  1.73D-07    CP:  9.88D-01  6.84D-01  9.61D-01  7.03D-01  1.67D+00
                    CP:  2.34D+00  2.20D+00  2.11D+00  1.95D+00  2.22D+00
                    CP:  2.68D+00  2.08D+00  1.48D+00
 E= -1333.37519786741     Delta-E=       -0.000000062914 Rises=F Damp=F
 DIIS: error= 1.22D-06 at cycle  14 NSaved=  14.
 NSaved=14 IEnMin=14 EnMin= -1333.37519786741     IErMin=14 ErrMin= 1.22D-06
 ErrMax= 1.22D-06  0.00D+00 EMaxC= 1.00D-01 BMatC= 9.30D-09 BMatP= 2.88D-08
 IDIUse=1 WtCom= 1.00D+00 WtEn= 0.00D+00
 Coeff-Com: -0.445D-04 0.104D-03 0.352D-03 0.595D-03-0.429D-03-0.579D-02
 Coeff-Com: -0.604D-02 0.133D-01 0.505D-01-0.937D-02-0.172D+00-0.128D+00
 Coeff-Com:  0.455D+00 0.802D+00
 Coeff:     -0.445D-04 0.104D-03 0.352D-03 0.595D-03-0.429D-03-0.579D-02
 Coeff:     -0.604D-02 0.133D-01 0.505D-01-0.937D-02-0.172D+00-0.128D+00
 Coeff:      0.455D+00 0.802D+00
 Gap=     0.139 Goal=   None    Shift=    0.000
 Gap=     0.150 Goal=   None    Shift=    0.000
 RMSDP=2.44D-07 MaxDP=2.28D-05 DE=-6.29D-08 OVMax= 1.37D-04

 Cycle  15  Pass 1  IDiag  1:
 RMSU=  7.68D-08    CP:  9.88D-01  6.84D-01  9.61D-01  7.03D-01  1.67D+00
                    CP:  2.34D+00  2.20D+00  2.12D+00  1.97D+00  2.27D+00
                    CP:  2.82D+00  2.26D+00  1.83D+00  1.23D+00
 E= -1333.37519787931     Delta-E=       -0.000000011893 Rises=F Damp=F
 DIIS: error= 5.36D-07 at cycle  15 NSaved=  15.
 NSaved=15 IEnMin=15 EnMin= -1333.37519787931     IErMin=15 ErrMin= 5.36D-07
 ErrMax= 5.36D-07  0.00D+00 EMaxC= 1.00D-01 BMatC= 2.00D-09 BMatP= 9.30D-09
 IDIUse=1 WtCom= 1.00D+00 WtEn= 0.00D+00
 Coeff-Com: -0.220D-04 0.467D-04 0.194D-03 0.472D-03 0.670D-03-0.115D-02
 Coeff-Com: -0.488D-02-0.132D-02 0.177D-01 0.300D-01-0.245D-01-0.128D+00
 Coeff-Com: -0.311D-01 0.350D+00 0.791D+00
 Coeff:     -0.220D-04 0.467D-04 0.194D-03 0.472D-03 0.670D-03-0.115D-02
 Coeff:     -0.488D-02-0.132D-02 0.177D-01 0.300D-01-0.245D-01-0.128D+00
 Coeff:     -0.311D-01 0.350D+00 0.791D+00
 Gap=     0.139 Goal=   None    Shift=    0.000
 Gap=     0.150 Goal=   None    Shift=    0.000
 RMSDP=1.12D-07 MaxDP=1.52D-05 DE=-1.19D-08 OVMax= 4.68D-05

 Cycle  16  Pass 1  IDiag  1:
 RMSU=  3.71D-08    CP:  9.88D-01  6.84D-01  9.61D-01  7.03D-01  1.67D+00
                    CP:  2.35D+00  2.20D+00  2.12D+00  1.97D+00  2.28D+00
                    CP:  2.84D+00  2.34D+00  1.96D+00  1.52D+00  1.10D+00
 E= -1333.37519788108     Delta-E=       -0.000000001770 Rises=F Damp=F
 DIIS: error= 2.34D-07 at cycle  16 NSaved=  16.
 NSaved=16 IEnMin=16 EnMin= -1333.37519788108     IErMin=16 ErrMin= 2.34D-07
 ErrMax= 2.34D-07  0.00D+00 EMaxC= 1.00D-01 BMatC= 4.05D-10 BMatP= 2.00D-09
 IDIUse=1 WtCom= 1.00D+00 WtEn= 0.00D+00
 Coeff-Com:  0.106D-06-0.219D-05 0.132D-04 0.821D-04 0.372D-03 0.656D-03
 Coeff-Com: -0.968D-03-0.327D-02-0.242D-02 0.152D-01 0.270D-01-0.313D-01
 Coeff-Com: -0.111D+00-0.899D-02 0.328D+00 0.787D+00
 Coeff:      0.106D-06-0.219D-05 0.132D-04 0.821D-04 0.372D-03 0.656D-03
 Coeff:     -0.968D-03-0.327D-02-0.242D-02 0.152D-01 0.270D-01-0.313D-01
 Coeff:     -0.111D+00-0.899D-02 0.328D+00 0.787D+00
 Gap=     0.139 Goal=   None    Shift=    0.000
 Gap=     0.150 Goal=   None    Shift=    0.000
 RMSDP=4.14D-08 MaxDP=4.39D-06 DE=-1.77D-09 OVMax= 1.55D-05

 Cycle  17  Pass 1  IDiag  1:
 RMSU=  1.49D-08    CP:  9.88D-01  6.84D-01  9.61D-01  7.03D-01  1.67D+00
                    CP:  2.35D+00  2.20D+00  2.12D+00  1.98D+00  2.28D+00
                    CP:  2.85D+00  2.35D+00  2.01D+00  1.60D+00  1.32D+00
                    CP:  1.32D+00
 E= -1333.37519788146     Delta-E=       -0.000000000387 Rises=F Damp=F
 DIIS: error= 1.28D-07 at cycle  17 NSaved=  17.
 NSaved=17 IEnMin=17 EnMin= -1333.37519788146     IErMin=17 ErrMin= 1.28D-07
 ErrMax= 1.28D-07  0.00D+00 EMaxC= 1.00D-01 BMatC= 9.13D-11 BMatP= 4.05D-10
 IDIUse=1 WtCom= 1.00D+00 WtEn= 0.00D+00
 Coeff-Com:  0.507D-05-0.112D-04-0.383D-04-0.807D-04-0.308D-04 0.458D-03
 Coeff-Com:  0.787D-03-0.624D-03-0.461D-02-0.282D-02 0.142D-01 0.187D-01
 Coeff-Com: -0.262D-01-0.803D-01-0.968D-01 0.261D+00 0.916D+00
 Coeff:      0.507D-05-0.112D-04-0.383D-04-0.807D-04-0.308D-04 0.458D-03
 Coeff:      0.787D-03-0.624D-03-0.461D-02-0.282D-02 0.142D-01 0.187D-01
 Coeff:     -0.262D-01-0.803D-01-0.968D-01 0.261D+00 0.916D+00
 Gap=     0.139 Goal=   None    Shift=    0.000
 Gap=     0.150 Goal=   None    Shift=    0.000
 RMSDP=2.16D-08 MaxDP=2.57D-06 DE=-3.87D-10 OVMax= 7.92D-06

 Cycle  18  Pass 1  IDiag  1:
 RMSU=  8.13D-09    CP:  9.88D-01  6.84D-01  9.61D-01  7.03D-01  1.67D+00
                    CP:  2.35D+00  2.20D+00  2.13D+00  1.98D+00  2.28D+00
                    CP:  2.85D+00  2.36D+00  2.03D+00  1.65D+00  1.42D+00
                    CP:  1.64D+00  1.39D+00
 E= -1333.37519788171     Delta-E=       -0.000000000245 Rises=F Damp=F
 DIIS: error= 8.22D-08 at cycle  18 NSaved=  18.
 NSaved=18 IEnMin=18 EnMin= -1333.37519788171     IErMin=18 ErrMin= 8.22D-08
 ErrMax= 8.22D-08  0.00D+00 EMaxC= 1.00D-01 BMatC= 2.43D-11 BMatP= 9.13D-11
 IDIUse=1 WtCom= 1.00D+00 WtEn= 0.00D+00
 Coeff-Com:  0.187D-05-0.379D-05-0.182D-04-0.500D-04-0.974D-04 0.303D-04
 Coeff-Com:  0.542D-03 0.559D-03-0.128D-02-0.485D-02-0.122D-02 0.147D-01
 Coeff-Com:  0.169D-01-0.280D-01-0.117D+00-0.811D-01 0.342D+00 0.859D+00
 Coeff:      0.187D-05-0.379D-05-0.182D-04-0.500D-04-0.974D-04 0.303D-04
 Coeff:      0.542D-03 0.559D-03-0.128D-02-0.485D-02-0.122D-02 0.147D-01
 Coeff:      0.169D-01-0.280D-01-0.117D+00-0.811D-01 0.342D+00 0.859D+00
 Gap=     0.139 Goal=   None    Shift=    0.000
 Gap=     0.150 Goal=   None    Shift=    0.000
 RMSDP=1.04D-08 MaxDP=1.12D-06 DE=-2.45D-10 OVMax= 4.10D-06

 Cycle  19  Pass 1  IDiag  1:
 RMSU=  3.95D-09    CP:  9.88D-01  6.84D-01  9.61D-01  7.03D-01  1.67D+00
                    CP:  2.35D+00  2.20D+00  2.13D+00  1.98D+00  2.28D+00
                    CP:  2.85D+00  2.36D+00  2.03D+00  1.66D+00  1.46D+00
                    CP:  1.77D+00  1.74D+00  1.45D+00
 E= -1333.37519788151     Delta-E=        0.000000000203 Rises=F Damp=F
 DIIS: error= 4.40D-08 at cycle  19 NSaved=  19.
 NSaved=19 IEnMin=18 EnMin= -1333.37519788171     IErMin=19 ErrMin= 4.40D-08
 ErrMax= 4.40D-08  0.00D+00 EMaxC= 1.00D-01 BMatC= 6.07D-12 BMatP= 2.43D-11
 IDIUse=1 WtCom= 1.00D+00 WtEn= 0.00D+00
 Coeff-Com: -0.113D-05 0.254D-05 0.616D-05 0.118D-04-0.174D-04-0.126D-03
 Coeff-Com: -0.852D-04 0.359D-03 0.964D-03-0.276D-03-0.471D-02-0.116D-02
 Coeff-Com:  0.124D-01 0.149D-01-0.267D-02-0.101D+00-0.187D+00 0.263D+00
 Coeff-Com:  0.101D+01
 Coeff:     -0.113D-05 0.254D-05 0.616D-05 0.118D-04-0.174D-04-0.126D-03
 Coeff:     -0.852D-04 0.359D-03 0.964D-03-0.276D-03-0.471D-02-0.116D-02
 Coeff:      0.124D-01 0.149D-01-0.267D-02-0.101D+00-0.187D+00 0.263D+00
 Coeff:      0.101D+01
 Gap=     0.139 Goal=   None    Shift=    0.000
 Gap=     0.150 Goal=   None    Shift=    0.000
 RMSDP=6.92D-09 MaxDP=8.06D-07 DE= 2.03D-10 OVMax= 1.98D-06

 Error on total polarization charges =  0.02179
 SCF Done:  E(UM062X) =  -1333.37519788     A.U. after   19 cycles
            NFock= 19  Conv=0.69D-08     -V/T= 2.0053
 <Sx>= 0.0000 <Sy>= 0.0000 <Sz>= 0.5000 <S**2>= 0.8212 S= 0.5350
 <L.S>= 0.000000000000E+00
 KE= 1.326390812739D+03 PE=-8.269471099800D+03 EE= 3.043760395722D+03
 Annihilation of the first spin contaminant:
 S**2 before annihilation     0.8212,   after     0.7535
 Leave Link  502 at Thu Nov  6 03:43:31 2025, MaxMem= 30870077440 cpu:           54216.7 elap:             856.9
 (Enter /public/software/gauss/g16/l601.exe)
 Copying SCF densities to generalized density rwf, IOpCl= 1 IROHF=0.

 **********************************************************************

            Population analysis using the SCF density.

 **********************************************************************

 Orbital symmetries:
 Alpha Orbitals:
       Occupied  (A) (A) (A) (A) (A) (A) (A) (A) (A) (A) (A) (A)
                 (A) (A) (A) (A) (A) (A) (A) (A) (A) (A) (A) (A)
                 (A) (A) (A) (A) (A) (A) (A) (A) (A) (A) (A) (A)
                 (A) (A) (A) (A) (A) (A) (A) (A) (A) (A) (A) (A)
                 (A) (A) (A) (A) (A) (A) (A) (A) (A) (A) (A) (A)
                 (A) (A) (A) (A) (A) (A) (A) (A) (A) (A) (A) (A)
                 (A) (A) (A) (A) (A) (A) (A) (A) (A) (A) (A) (A)
                 (A) (A) (A) (A) (A) (A) (A) (A) (A) (A) (A) (A)
                 (A) (A) (A) (A) (A) (A)
       Virtual   (A) (A) (A) (A) (A) (A) (A) (A) (A) (A) (A) (A)
                 (A) (A) (A) (A) (A) (A) (A) (A) (A) (A) (A) (A)
                 (A) (A) (A) (A) (A) (A) (A) (A) (A) (A) (A) (A)
                 (A) (A) (A) (A) (A) (A) (A) (A) (A) (A) (A) (A)
                 (A) (A) (A) (A) (A) (A) (A) (A) (A) (A) (A) (A)
                 (A) (A) (A) (A) (A) (A) (A) (A) (A) (A) (A) (A)
                 (A) (A) (A) (A) (A) (A) (A) (A) (A) (A) (A) (A)
                 (A) (A) (A) (A) (A) (A) (A) (A) (A) (A) (A) (A)
                 (A) (A) (A) (A) (A) (A) (A) (A) (A) (A) (A) (A)
                 (A) (A) (A) (A) (A) (A) (A) (A) (A) (A) (A) (A)
                 (A) (A) (A) (A) (A) (A) (A) (A) (A) (A) (A) (A)
                 (A) (A) (A) (A) (A) (A) (A) (A) (A) (A) (A) (A)
                 (A) (A) (A) (A) (A) (A) (A) (A) (A) (A) (A) (A)
                 (A) (A) (A) (A) (A) (A) (A) (A) (A) (A) (A) (A)
                 (A) (A) (A) (A) (A) (A) (A) (A) (A) (A) (A) (A)
                 (A) (A) (A) (A) (A) (A) (A) (A) (A) (A) (A) (A)
                 (A) (A) (A) (A) (A) (A) (A) (A) (A) (A) (A) (A)
                 (A) (A) (A) (A) (A) (A) (A) (A) (A) (A) (A) (A)
                 (A) (A) (A) (A) (A) (A) (A) (A) (A) (A) (A) (A)
                 (A) (A) (A) (A) (A) (A) (A) (A) (A) (A) (A) (A)
                 (A) (A) (A) (A) (A) (A) (A) (A) (A) (A) (A) (A)
                 (A) (A) (A) (A) (A) (A) (A) (A) (A) (A) (A) (A)
                 (A) (A) (A) (A) (A) (A) (A) (A) (A) (A) (A) (A)
                 (A) (A) (A) (A) (A) (A) (A) (A) (A) (A) (A) (A)
                 (A) (A) (A) (A) (A) (A) (A) (A) (A) (A) (A) (A)
                 (A) (A) (A) (A) (A) (A) (A) (A) (A) (A) (A) (A)
                 (A) (A) (A) (A) (A) (A) (A) (A) (A) (A) (A) (A)
                 (A) (A) (A) (A) (A) (A) (A) (A) (A) (A) (A) (A)
                 (A) (A) (A) (A) (A) (A) (A) (A) (A) (A) (A) (A)
                 (A) (A) (A) (A) (A) (A) (A) (A) (A) (A) (A) (A)
                 (A) (A) (A) (A) (A) (A) (A) (A) (A) (A) (A) (A)
                 (A) (A) (A) (A) (A) (A) (A) (A) (A) (A) (A) (A)
                 (A) (A) (A) (A) (A) (A) (A) (A) (A) (A) (A) (A)
                 (A) (A) (A) (A) (A) (A) (A) (A) (A) (A) (A) (A)
                 (A) (A) (A) (A) (A) (A) (A) (A) (A) (A) (A) (A)
                 (A) (A) (A) (A) (A) (A) (A) (A) (A) (A) (A) (A)
                 (A) (A) (A) (A) (A) (A) (A) (A) (A) (A) (A) (A)
                 (A) (A) (A) (A) (A) (A) (A) (A) (A) (A) (A) (A)
                 (A) (A) (A) (A) (A) (A) (A) (A) (A) (A) (A) (A)
                 (A) (A) (A) (A) (A) (A) (A) (A) (A) (A) (A) (A)
                 (A) (A) (A) (A) (A) (A) (A) (A) (A) (A) (A) (A)
                 (A) (A) (A) (A) (A) (A) (A) (A) (A) (A) (A) (A)
                 (A) (A) (A) (A) (A) (A) (A) (A) (A) (A) (A) (A)
                 (A) (A) (A) (A) (A) (A) (A) (A) (A) (A) (A) (A)
                 (A) (A) (A) (A) (A) (A) (A) (A) (A) (A) (A) (A)
                 (A) (A) (A) (A) (A) (A) (A) (A) (A) (A) (A) (A)
                 (A) (A) (A) (A) (A) (A) (A) (A) (A) (A) (A) (A)
                 (A) (A) (A) (A) (A) (A) (A) (A) (A) (A) (A) (A)
                 (A) (A) (A) (A) (A) (A) (A) (A) (A) (A) (A) (A)
                 (A) (A) (A) (A) (A) (A) (A) (A) (A) (A) (A) (A)
                 (A) (A) (A) (A) (A) (A) (A) (A) (A) (A) (A) (A)
                 (A) (A) (A) (A) (A) (A) (A) (A) (A) (A) (A) (A)
                 (A) (A) (A) (A) (A) (A) (A) (A) (A) (A) (A) (A)
                 (A) (A) (A) (A) (A) (A) (A) (A) (A) (A) (A) (A)
                 (A) (A) (A) (A) (A) (A) (A) (A) (A) (A) (A) (A)
                 (A) (A) (A) (A) (A) (A) (A) (A) (A) (A) (A) (A)
                 (A) (A) (A) (A) (A) (A) (A) (A) (A) (A) (A) (A)
                 (A) (A) (A) (A) (A) (A) (A) (A) (A) (A) (A) (A)
                 (A) (A) (A) (A) (A) (A) (A) (A) (A) (A) (A) (A)
                 (A) (A) (A) (A) (A) (A) (A) (A) (A) (A) (A) (A)
                 (A) (A) (A) (A) (A) (A) (A) (A) (A) (A) (A) (A)
                 (A) (A) (A) (A) (A) (A) (A) (A) (A) (A) (A) (A)
                 (A) (A) (A) (A) (A) (A) (A) (A) (A) (A) (A) (A)
                 (A) (A) (A) (A) (A) (A) (A) (A) (A) (A) (A) (A)
                 (A) (A) (A) (A) (A) (A) (A) (A) (A) (A) (A) (A)
                 (A) (A) (A) (A) (A) (A) (A) (A) (A) (A) (A) (A)
                 (A) (A) (A) (A) (A) (A) (A) (A) (A) (A) (A) (A)
                 (A) (A) (A) (A) (A) (A) (A) (A) (A) (A) (A) (A)
                 (A) (A) (A) (A) (A) (A) (A) (A) (A) (A) (A) (A)
                 (A) (A) (A) (A) (A) (A) (A) (A) (A) (A) (A) (A)
                 (A) (A) (A) (A) (A) (A) (A) (A) (A) (A) (A) (A)
                 (A) (A) (A) (A) (A) (A) (A) (A) (A) (A) (A) (A)
                 (A) (A) (A) (A) (A) (A) (A) (A) (A) (A) (A) (A)
                 (A) (A) (A) (A) (A) (A) (A) (A) (A) (A) (A) (A)
                 (A) (A) (A) (A) (A) (A) (A) (A) (A) (A) (A) (A)
                 (A) (A) (A) (A) (A) (A) (A) (A) (A) (A) (A) (A)
                 (A) (A) (A) (A) (A) (A) (A) (A) (A) (A) (A) (A)
                 (A) (A) (A) (A) (A) (A) (A) (A) (A) (A) (A) (A)
                 (A) (A) (A) (A) (A) (A) (A) (A) (A) (A) (A) (A)
                 (A) (A) (A) (A) (A) (A) (A) (A) (A) (A) (A) (A)
                 (A) (A) (A) (A) (A) (A) (A) (A) (A) (A) (A) (A)
                 (A) (A) (A) (A) (A) (A) (A) (A) (A) (A) (A) (A)
                 (A) (A) (A) (A) (A) (A) (A) (A) (A) (A) (A) (A)
                 (A) (A) (A) (A) (A) (A) (A) (A) (A) (A) (A) (A)
                 (A) (A) (A) (A) (A) (A) (A) (A) (A) (A) (A) (A)
                 (A) (A) (A) (A) (A) (A) (A) (A) (A) (A) (A) (A)
                 (A) (A) (A)
 Beta  Orbitals:
       Occupied  (A) (A) (A) (A) (A) (A) (A) (A) (A) (A) (A) (A)
                 (A) (A) (A) (A) (A) (A) (A) (A) (A) (A) (A) (A)
                 (A) (A) (A) (A) (A) (A) (A) (A) (A) (A) (A) (A)
                 (A) (A) (A) (A) (A) (A) (A) (A) (A) (A) (A) (A)
                 (A) (A) (A) (A) (A) (A) (A) (A) (A) (A) (A) (A)
                 (A) (A) (A) (A) (A) (A) (A) (A) (A) (A) (A) (A)
                 (A) (A) (A) (A) (A) (A) (A) (A) (A) (A) (A) (A)
                 (A) (A) (A) (A) (A) (A) (A) (A) (A) (A) (A) (A)
                 (A) (A) (A) (A) (A)
       Virtual   (A) (A) (A) (A) (A) (A) (A) (A) (A) (A) (A) (A)
                 (A) (A) (A) (A) (A) (A) (A) (A) (A) (A) (A) (A)
                 (A) (A) (A) (A) (A) (A) (A) (A) (A) (A) (A) (A)
                 (A) (A) (A) (A) (A) (A) (A) (A) (A) (A) (A) (A)
                 (A) (A) (A) (A) (A) (A) (A) (A) (A) (A) (A) (A)
                 (A) (A) (A) (A) (A) (A) (A) (A) (A) (A) (A) (A)
                 (A) (A) (A) (A) (A) (A) (A) (A) (A) (A) (A) (A)
                 (A) (A) (A) (A) (A) (A) (A) (A) (A) (A) (A) (A)
                 (A) (A) (A) (A) (A) (A) (A) (A) (A) (A) (A) (A)
                 (A) (A) (A) (A) (A) (A) (A) (A) (A) (A) (A) (A)
                 (A) (A) (A) (A) (A) (A) (A) (A) (A) (A) (A) (A)
                 (A) (A) (A) (A) (A) (A) (A) (A) (A) (A) (A) (A)
                 (A) (A) (A) (A) (A) (A) (A) (A) (A) (A) (A) (A)
                 (A) (A) (A) (A) (A) (A) (A) (A) (A) (A) (A) (A)
                 (A) (A) (A) (A) (A) (A) (A) (A) (A) (A) (A) (A)
                 (A) (A) (A) (A) (A) (A) (A) (A) (A) (A) (A) (A)
                 (A) (A) (A) (A) (A) (A) (A) (A) (A) (A) (A) (A)
                 (A) (A) (A) (A) (A) (A) (A) (A) (A) (A) (A) (A)
                 (A) (A) (A) (A) (A) (A) (A) (A) (A) (A) (A) (A)
                 (A) (A) (A) (A) (A) (A) (A) (A) (A) (A) (A) (A)
                 (A) (A) (A) (A) (A) (A) (A) (A) (A) (A) (A) (A)
                 (A) (A) (A) (A) (A) (A) (A) (A) (A) (A) (A) (A)
                 (A) (A) (A) (A) (A) (A) (A) (A) (A) (A) (A) (A)
                 (A) (A) (A) (A) (A) (A) (A) (A) (A) (A) (A) (A)
                 (A) (A) (A) (A) (A) (A) (A) (A) (A) (A) (A) (A)
                 (A) (A) (A) (A) (A) (A) (A) (A) (A) (A) (A) (A)
                 (A) (A) (A) (A) (A) (A) (A) (A) (A) (A) (A) (A)
                 (A) (A) (A) (A) (A) (A) (A) (A) (A) (A) (A) (A)
                 (A) (A) (A) (A) (A) (A) (A) (A) (A) (A) (A) (A)
                 (A) (A) (A) (A) (A) (A) (A) (A) (A) (A) (A) (A)
                 (A) (A) (A) (A) (A) (A) (A) (A) (A) (A) (A) (A)
                 (A) (A) (A) (A) (A) (A) (A) (A) (A) (A) (A) (A)
                 (A) (A) (A) (A) (A) (A) (A) (A) (A) (A) (A) (A)
                 (A) (A) (A) (A) (A) (A) (A) (A) (A) (A) (A) (A)
                 (A) (A) (A) (A) (A) (A) (A) (A) (A) (A) (A) (A)
                 (A) (A) (A) (A) (A) (A) (A) (A) (A) (A) (A) (A)
                 (A) (A) (A) (A) (A) (A) (A) (A) (A) (A) (A) (A)
                 (A) (A) (A) (A) (A) (A) (A) (A) (A) (A) (A) (A)
                 (A) (A) (A) (A) (A) (A) (A) (A) (A) (A) (A) (A)
                 (A) (A) (A) (A) (A) (A) (A) (A) (A) (A) (A) (A)
                 (A) (A) (A) (A) (A) (A) (A) (A) (A) (A) (A) (A)
                 (A) (A) (A) (A) (A) (A) (A) (A) (A) (A) (A) (A)
                 (A) (A) (A) (A) (A) (A) (A) (A) (A) (A) (A) (A)
                 (A) (A) (A) (A) (A) (A) (A) (A) (A) (A) (A) (A)
                 (A) (A) (A) (A) (A) (A) (A) (A) (A) (A) (A) (A)
                 (A) (A) (A) (A) (A) (A) (A) (A) (A) (A) (A) (A)
                 (A) (A) (A) (A) (A) (A) (A) (A) (A) (A) (A) (A)
                 (A) (A) (A) (A) (A) (A) (A) (A) (A) (A) (A) (A)
                 (A) (A) (A) (A) (A) (A) (A) (A) (A) (A) (A) (A)
                 (A) (A) (A) (A) (A) (A) (A) (A) (A) (A) (A) (A)
                 (A) (A) (A) (A) (A) (A) (A) (A) (A) (A) (A) (A)
                 (A) (A) (A) (A) (A) (A) (A) (A) (A) (A) (A) (A)
                 (A) (A) (A) (A) (A) (A) (A) (A) (A) (A) (A) (A)
                 (A) (A) (A) (A) (A) (A) (A) (A) (A) (A) (A) (A)
                 (A) (A) (A) (A) (A) (A) (A) (A) (A) (A) (A) (A)
                 (A) (A) (A) (A) (A) (A) (A) (A) (A) (A) (A) (A)
                 (A) (A) (A) (A) (A) (A) (A) (A) (A) (A) (A) (A)
                 (A) (A) (A) (A) (A) (A) (A) (A) (A) (A) (A) (A)
                 (A) (A) (A) (A) (A) (A) (A) (A) (A) (A) (A) (A)
                 (A) (A) (A) (A) (A) (A) (A) (A) (A) (A) (A) (A)
                 (A) (A) (A) (A) (A) (A) (A) (A) (A) (A) (A) (A)
                 (A) (A) (A) (A) (A) (A) (A) (A) (A) (A) (A) (A)
                 (A) (A) (A) (A) (A) (A) (A) (A) (A) (A) (A) (A)
                 (A) (A) (A) (A) (A) (A) (A) (A) (A) (A) (A) (A)
                 (A) (A) (A) (A) (A) (A) (A) (A) (A) (A) (A) (A)
                 (A) (A) (A) (A) (A) (A) (A) (A) (A) (A) (A) (A)
                 (A) (A) (A) (A) (A) (A) (A) (A) (A) (A) (A) (A)
                 (A) (A) (A) (A) (A) (A) (A) (A) (A) (A) (A) (A)
                 (A) (A) (A) (A) (A) (A) (A) (A) (A) (A) (A) (A)
                 (A) (A) (A) (A) (A) (A) (A) (A) (A) (A) (A) (A)
                 (A) (A) (A) (A) (A) (A) (A) (A) (A) (A) (A) (A)
                 (A) (A) (A) (A) (A) (A) (A) (A) (A) (A) (A) (A)
                 (A) (A) (A) (A) (A) (A) (A) (A) (A) (A) (A) (A)
                 (A) (A) (A) (A) (A) (A) (A) (A) (A) (A) (A) (A)
                 (A) (A) (A) (A) (A) (A) (A) (A) (A) (A) (A) (A)
                 (A) (A) (A) (A) (A) (A) (A) (A) (A) (A) (A) (A)
                 (A) (A) (A) (A) (A) (A) (A) (A) (A) (A) (A) (A)
                 (A) (A) (A) (A) (A) (A) (A) (A) (A) (A) (A) (A)
                 (A) (A) (A) (A) (A) (A) (A) (A) (A) (A) (A) (A)
                 (A) (A) (A) (A) (A) (A) (A) (A) (A) (A) (A) (A)
                 (A) (A) (A) (A) (A) (A) (A) (A) (A) (A) (A) (A)
                 (A) (A) (A) (A) (A) (A) (A) (A) (A) (A) (A) (A)
                 (A) (A) (A) (A) (A) (A) (A) (A) (A) (A) (A) (A)
                 (A) (A) (A) (A) (A) (A) (A) (A) (A) (A) (A) (A)
                 (A) (A) (A) (A) (A) (A) (A) (A) (A) (A) (A) (A)
                 (A) (A) (A) (A) (A) (A) (A) (A) (A) (A) (A) (A)
                 (A) (A) (A) (A)
 The electronic state is 2-A.
 Alpha  occ. eigenvalues --  -25.19651 -25.19646 -19.60952 -19.60869 -14.77362
 Alpha  occ. eigenvalues --  -14.77316 -10.61673 -10.61526 -10.58630 -10.58484
 Alpha  occ. eigenvalues --  -10.58122 -10.58116 -10.56855 -10.56505 -10.56383
 Alpha  occ. eigenvalues --  -10.56101 -10.55649 -10.54881 -10.54877 -10.54480
 Alpha  occ. eigenvalues --  -10.54442 -10.54439 -10.54352 -10.54343 -10.54026
 Alpha  occ. eigenvalues --  -10.53817 -10.53334 -10.53185  -7.12212  -1.31556
 Alpha  occ. eigenvalues --   -1.28299  -1.14201  -1.14098  -1.09388  -1.07336
 Alpha  occ. eigenvalues --   -0.97288  -0.92736  -0.90298  -0.89870  -0.88223
 Alpha  occ. eigenvalues --   -0.87240  -0.85567  -0.84595  -0.82192  -0.79836
 Alpha  occ. eigenvalues --   -0.76578  -0.74273  -0.70693  -0.69440  -0.69065
 Alpha  occ. eigenvalues --   -0.67892  -0.66492  -0.65393  -0.64596  -0.62062
 Alpha  occ. eigenvalues --   -0.61141  -0.60053  -0.59725  -0.58576  -0.57557
 Alpha  occ. eigenvalues --   -0.56135  -0.55520  -0.53831  -0.53512  -0.53211
 Alpha  occ. eigenvalues --   -0.52821  -0.52108  -0.51647  -0.50828  -0.50525
 Alpha  occ. eigenvalues --   -0.50279  -0.49036  -0.48844  -0.48684  -0.48400
 Alpha  occ. eigenvalues --   -0.47491  -0.47117  -0.46991  -0.46548  -0.46290
 Alpha  occ. eigenvalues --   -0.46126  -0.45696  -0.45059  -0.44768  -0.44468
 Alpha  occ. eigenvalues --   -0.43371  -0.42594  -0.42229  -0.40718  -0.40498
 Alpha  occ. eigenvalues --   -0.40052  -0.38866  -0.36105  -0.33086  -0.32901
 Alpha  occ. eigenvalues --   -0.32837  -0.32688  -0.31782  -0.31329  -0.29093
 Alpha  occ. eigenvalues --   -0.25622  -0.19669
 Alpha virt. eigenvalues --   -0.05721  -0.03092   0.01355   0.01507   0.06298
 Alpha virt. eigenvalues --    0.06790   0.07666   0.08267   0.08809   0.09534
 Alpha virt. eigenvalues --    0.09846   0.10308   0.10617   0.11039   0.11299
 Alpha virt. eigenvalues --    0.11564   0.11917   0.12689   0.12988   0.13081
 Alpha virt. eigenvalues --    0.13416   0.13733   0.14223   0.14603   0.14907
 Alpha virt. eigenvalues --    0.15954   0.16241   0.16420   0.16864   0.17654
 Alpha virt. eigenvalues --    0.17838   0.18230   0.18790   0.19401   0.19733
 Alpha virt. eigenvalues --    0.20234   0.21067   0.21239   0.21577   0.21858
 Alpha virt. eigenvalues --    0.22322   0.23008   0.23370   0.23653   0.23876
 Alpha virt. eigenvalues --    0.24269   0.24718   0.24815   0.25733   0.25888
 Alpha virt. eigenvalues --    0.25966   0.26274   0.26758   0.27134   0.27880
 Alpha virt. eigenvalues --    0.28290   0.28822   0.29201   0.29598   0.30289
 Alpha virt. eigenvalues --    0.30363   0.30519   0.31072   0.31139   0.31827
 Alpha virt. eigenvalues --    0.31985   0.32332   0.32610   0.32793   0.33195
 Alpha virt. eigenvalues --    0.33851   0.33982   0.34513   0.34675   0.34845
 Alpha virt. eigenvalues --    0.35098   0.35301   0.36308   0.36812   0.36922
 Alpha virt. eigenvalues --    0.37250   0.37648   0.37804   0.37938   0.38405
 Alpha virt. eigenvalues --    0.38757   0.38982   0.39178   0.39694   0.40078
 Alpha virt. eigenvalues --    0.40664   0.41091   0.41498   0.41641   0.42234
 Alpha virt. eigenvalues --    0.42396   0.43030   0.43236   0.43624   0.44258
 Alpha virt. eigenvalues --    0.44606   0.44788   0.45082   0.45376   0.45505
 Alpha virt. eigenvalues --    0.46315   0.46641   0.47000   0.47254   0.47474
 Alpha virt. eigenvalues --    0.47540   0.48065   0.48522   0.48782   0.49325
 Alpha virt. eigenvalues --    0.49752   0.50248   0.50661   0.50738   0.51291
 Alpha virt. eigenvalues --    0.51726   0.51912   0.52592   0.52857   0.53319
 Alpha virt. eigenvalues --    0.53691   0.53756   0.53975   0.54347   0.54555
 Alpha virt. eigenvalues --    0.55087   0.55624   0.55790   0.56025   0.56666
 Alpha virt. eigenvalues --    0.57037   0.57168   0.58319   0.58921   0.59199
 Alpha virt. eigenvalues --    0.59420   0.59598   0.60986   0.61406   0.61671
 Alpha virt. eigenvalues --    0.62571   0.62664   0.63070   0.63458   0.64124
 Alpha virt. eigenvalues --    0.64925   0.65409   0.65579   0.66005   0.66477
 Alpha virt. eigenvalues --    0.66573   0.67101   0.68339   0.68405   0.68659
 Alpha virt. eigenvalues --    0.69297   0.69435   0.69730   0.70268   0.70629
 Alpha virt. eigenvalues --    0.71081   0.71429   0.72027   0.72265   0.72716
 Alpha virt. eigenvalues --    0.72947   0.73695   0.73797   0.73899   0.74306
 Alpha virt. eigenvalues --    0.74587   0.75171   0.75299   0.76051   0.76600
 Alpha virt. eigenvalues --    0.76808   0.77455   0.77666   0.77701   0.78554
 Alpha virt. eigenvalues --    0.78750   0.79060   0.79756   0.80778   0.80982
 Alpha virt. eigenvalues --    0.81579   0.81839   0.82043   0.82606   0.82927
 Alpha virt. eigenvalues --    0.83605   0.83931   0.84516   0.85214   0.85469
 Alpha virt. eigenvalues --    0.85754   0.86583   0.87708   0.87956   0.88285
 Alpha virt. eigenvalues --    0.88949   0.89806   0.89938   0.90315   0.90678
 Alpha virt. eigenvalues --    0.91446   0.91898   0.92389   0.92665   0.93275
 Alpha virt. eigenvalues --    0.93727   0.94097   0.94440   0.94868   0.95698
 Alpha virt. eigenvalues --    0.95824   0.95913   0.96742   0.97316   0.97960
 Alpha virt. eigenvalues --    0.98274   0.98806   0.99003   0.99476   0.99877
 Alpha virt. eigenvalues --    1.00190   1.01512   1.01900   1.02266   1.02605
 Alpha virt. eigenvalues --    1.02894   1.03149   1.03495   1.04524   1.04791
 Alpha virt. eigenvalues --    1.05165   1.05778   1.06483   1.06966   1.07218
 Alpha virt. eigenvalues --    1.08340   1.08431   1.09195   1.09339   1.10310
 Alpha virt. eigenvalues --    1.10632   1.10841   1.11364   1.12298   1.12564
 Alpha virt. eigenvalues --    1.13391   1.13924   1.14612   1.14858   1.15719
 Alpha virt. eigenvalues --    1.16305   1.16412   1.16785   1.17445   1.18175
 Alpha virt. eigenvalues --    1.18434   1.19027   1.19246   1.19886   1.20662
 Alpha virt. eigenvalues --    1.20827   1.21381   1.22429   1.23425   1.23611
 Alpha virt. eigenvalues --    1.24251   1.24579   1.24828   1.25042   1.25746
 Alpha virt. eigenvalues --    1.26464   1.26598   1.26840   1.28244   1.28557
 Alpha virt. eigenvalues --    1.29574   1.30103   1.30247   1.30527   1.31103
 Alpha virt. eigenvalues --    1.31532   1.32337   1.32936   1.33362   1.33742
 Alpha virt. eigenvalues --    1.35335   1.35585   1.36086   1.36138   1.37460
 Alpha virt. eigenvalues --    1.37697   1.38214   1.39259   1.39811   1.40152
 Alpha virt. eigenvalues --    1.40460   1.41031   1.41344   1.41978   1.42599
 Alpha virt. eigenvalues --    1.43338   1.44148   1.44667   1.44880   1.45409
 Alpha virt. eigenvalues --    1.45659   1.46348   1.46725   1.47073   1.47466
 Alpha virt. eigenvalues --    1.48096   1.48377   1.49110   1.49437   1.50030
 Alpha virt. eigenvalues --    1.50066   1.50657   1.51047   1.51577   1.51878
 Alpha virt. eigenvalues --    1.52085   1.52604   1.52779   1.53258   1.54324
 Alpha virt. eigenvalues --    1.54439   1.55131   1.55468   1.55868   1.56625
 Alpha virt. eigenvalues --    1.57191   1.57718   1.58354   1.58720   1.59253
[...]
     3   Atom        0.008477     -0.005945     -0.002532
     4   Atom       -0.012174      0.027015     -0.014841
     5   Atom        0.011887     -0.009838     -0.002049
     6   Atom       -0.213456     -0.217785      0.431241
     7   Atom        0.056542      0.056591     -0.113133
     8   Atom       -0.055858     -0.055816      0.111674
     9   Atom        0.041539      0.038718     -0.080257
    10   Atom       -0.074406     -0.076837      0.151243
    11   Atom        0.023372      0.015755     -0.039127
    12   Atom       -0.070688     -0.080174      0.150861
    13   Atom        0.000467     -0.007599      0.007132
    14   Atom       -0.184899     -0.181560      0.366459
    15   Atom       -0.072678     -0.083049      0.155727
    16   Atom        0.000477      0.001818     -0.002296
    17   Atom        0.018285     -0.010686     -0.007599
    18   Atom        0.019987     -0.009155     -0.010833
    19   Atom       -0.065500     -0.075831      0.141331
    20   Atom       -0.065722     -0.068188      0.133910
    21   Atom        0.021999      0.010974     -0.032973
    22   Atom       -0.071362     -0.065857      0.137219
    23   Atom       -0.007346      0.000892      0.006454
    24   Atom       -0.158793     -0.161456      0.320249
    25   Atom        0.042159      0.039106     -0.081265
    26   Atom       -0.060206     -0.059890      0.120096
    27   Atom        0.055557      0.056708     -0.112266
    28   Atom       -0.010593      0.025420     -0.014827
    29   Atom        0.008539     -0.006261     -0.002279
    30   Atom        0.000828     -0.000460     -0.000368
    31   Atom        0.000847     -0.000376     -0.000472
    32   Atom        0.000801     -0.000360     -0.000440
    33   Atom        0.001208     -0.000725     -0.000484
    34   Atom       -0.000327      0.000448     -0.000121
    35   Atom        0.006286     -0.004380     -0.001906
    36   Atom        0.005896     -0.003745     -0.002151
    37   Atom        0.004375     -0.000830     -0.003545
    38   Atom        0.000669      0.001250     -0.001919
    39   Atom        0.000771      0.001557     -0.002328
    40   Atom        0.003015     -0.000624     -0.002391
    41   Atom       -0.008963      0.010646     -0.001683
    42   Atom        0.004479     -0.002220     -0.002259
    43   Atom        0.005481     -0.003601     -0.001879
    44   Atom        0.007118     -0.005184     -0.001934
    45   Atom       -0.000252      0.000354     -0.000102
    46   Atom        0.001236     -0.000733     -0.000503
 --------------------------------------------------------
                        XY            XZ            YZ
 --------------------------------------------------------
     1   Atom        0.000007     -0.000032     -0.000487
     2   Atom        0.000119     -0.000148     -0.025307
     3   Atom       -0.000862      0.000012      0.008609
     4   Atom       -0.014735      0.001231     -0.013346
     5   Atom       -0.000489      0.000258      0.017379
     6   Atom       -0.000184     -0.000380     -0.001072
     7   Atom        0.006553      0.003569     -0.005602
     8   Atom       -0.001435     -0.010140      0.012569
     9   Atom        0.001089      0.003521     -0.006318
    10   Atom        0.002427     -0.001466      0.010056
    11   Atom        0.005389     -0.000772     -0.000956
    12   Atom       -0.000539      0.002001      0.000608
    13   Atom       -0.004047      0.000818      0.000286
    14   Atom        0.006595      0.009996      0.003319
    15   Atom        0.000124     -0.005353      0.012189
    16   Atom       -0.000480     -0.000360     -0.000771
    17   Atom        0.007776      0.014844      0.003946
    18   Atom        0.007934     -0.006928     -0.000829
    19   Atom       -0.001142      0.002994      0.003150
    20   Atom       -0.002475      0.002710      0.007938
    21   Atom       -0.003347     -0.000240     -0.002408
    22   Atom       -0.003286      0.012651      0.029474
    23   Atom       -0.003954      0.001123      0.001154
    24   Atom        0.004557      0.023291      0.068983
    25   Atom       -0.001428     -0.000909     -0.006160
    26   Atom        0.000980      0.009845      0.012256
    27   Atom       -0.006665     -0.004053     -0.005327
    28   Atom        0.016259     -0.001748     -0.012922
    29   Atom        0.000157      0.000299      0.008522
    30   Atom        0.000068      0.000412      0.000063
    31   Atom        0.000350     -0.000286     -0.000201
    32   Atom       -0.000402     -0.000210      0.000110
    33   Atom       -0.000136     -0.000065      0.000352
    34   Atom       -0.000578     -0.000770      0.002889
    35   Atom       -0.004627      0.001057      0.000007
    36   Atom       -0.000782      0.000209      0.000095
    37   Atom        0.003201     -0.000157      0.000018
    38   Atom       -0.010472      0.000102      0.000010
    39   Atom        0.003744     -0.000059     -0.000078
    40   Atom       -0.003278      0.000082     -0.000451
    41   Atom       -0.000312      0.000312     -0.001587
    42   Atom       -0.000143     -0.000365      0.000048
    43   Atom        0.000420     -0.000144      0.000176
    44   Atom        0.004258     -0.001077      0.000073
    45   Atom        0.000609      0.000953      0.002849
    46   Atom        0.000058      0.000075      0.000345
 --------------------------------------------------------


 ---------------------------------------------------------------------------------
              Anisotropic Spin Dipole Couplings in Principal Axis System
 ---------------------------------------------------------------------------------

       Atom             a.u.   MegaHertz   Gauss  10(-4) cm-1        Axes

              Baa    -0.0008    -0.109    -0.039    -0.037  0.0192  0.4774  0.8785
     1 C(13)  Bbb     0.0003     0.046     0.016     0.015 -0.1621  0.8685 -0.4685
              Bcc     0.0005     0.064     0.023     0.021  0.9866  0.1334 -0.0941
 
              Baa    -0.0179    -2.398    -0.856    -0.800  0.0120  0.6637  0.7479
     2 C(13)  Bbb    -0.0152    -2.044    -0.729    -0.682  0.9999 -0.0108 -0.0064
              Bcc     0.0331     4.442     1.585     1.482  0.0039  0.7480 -0.6637
 
              Baa    -0.0130    -1.749    -0.624    -0.584  0.0313  0.7730 -0.6336
     3 C(13)  Bbb     0.0045     0.599     0.214     0.200  0.1321  0.6252  0.7692
              Bcc     0.0086     1.150     0.410     0.384  0.9907 -0.1078 -0.0825
 
              Baa    -0.0207    -2.776    -0.991    -0.926  0.5460  0.3779  0.7477
     4 C(13)  Bbb    -0.0147    -1.967    -0.702    -0.656  0.7850  0.0809 -0.6141
              Bcc     0.0353     4.743     1.692     1.582 -0.2926  0.9223 -0.2525
 
              Baa    -0.0238    -3.189    -1.138    -1.064  0.0152  0.7805 -0.6249
     5 C(13)  Bbb     0.0118     1.580     0.564     0.527  0.6563  0.4637  0.5952
              Bcc     0.0120     1.608     0.574     0.537  0.7544 -0.4192 -0.5052
 
              Baa    -0.2178   -29.226   -10.429    -9.749  0.0426  0.9991  0.0017
     6 C(13)  Bbb    -0.2134   -28.643   -10.220    -9.554  0.9991 -0.0426  0.0005
              Bcc     0.4312    57.869    20.649    19.303 -0.0006 -0.0017  1.0000
 
              Baa    -0.1134   -15.217    -5.430    -5.076 -0.0223  0.0338  0.9992
     7 C(13)  Bbb     0.0503     6.746     2.407     2.250  0.7110 -0.7020  0.0396
              Bcc     0.0631     8.472     3.023     2.826  0.7028  0.7113 -0.0084
 
              Baa    -0.0573    -7.690    -2.744    -2.565  0.6307  0.7757 -0.0199
     8 C(13)  Bbb    -0.0559    -7.505    -2.678    -2.503  0.7736 -0.6266  0.0938
              Bcc     0.1132    15.194     5.422     5.068 -0.0603  0.0745  0.9954
 
              Baa    -0.0807   -10.829    -3.864    -3.612 -0.0292  0.0531  0.9982
     9 C(13)  Bbb     0.0388     5.203     1.856     1.735 -0.2991  0.9524 -0.0594
              Bcc     0.0419     5.626     2.008     1.877  0.9538  0.3003  0.0120
 
              Baa    -0.0787   -10.563    -3.769    -3.524 -0.5006  0.8647 -0.0410
    10 C(13)  Bbb    -0.0730    -9.792    -3.494    -3.266  0.8657  0.5003 -0.0168
              Bcc     0.1517    20.356     7.263     6.790 -0.0060  0.0439  0.9990
 
              Baa    -0.0392    -5.254    -1.875    -1.752  0.0109  0.0163  0.9998
    11 C(13)  Bbb     0.0130     1.740     0.621     0.581 -0.4605  0.8876 -0.0095
              Bcc     0.0262     3.513     1.254     1.172  0.8876  0.4603 -0.0172
 
              Baa    -0.0802   -10.763    -3.840    -3.590  0.0572  0.9984 -0.0031
    12 C(13)  Bbb    -0.0707    -9.484    -3.384    -3.163  0.9983 -0.0572 -0.0089
              Bcc     0.1509    20.247     7.225     6.754  0.0090  0.0026  1.0000
 
              Baa    -0.0093    -1.248    -0.445    -0.416  0.3851  0.9222 -0.0352
    13 C(13)  Bbb     0.0021     0.277     0.099     0.092  0.9137 -0.3864 -0.1257
              Bcc     0.0072     0.971     0.346     0.324  0.1295 -0.0162  0.9914
 
              Baa    -0.1901    13.755     4.908     4.588  0.7932 -0.6088 -0.0106
    14 O(17)  Bbb    -0.1766    12.776     4.559     4.262  0.6086  0.7933 -0.0161
              Bcc     0.3667   -26.531    -9.467    -8.850  0.0182  0.0063  0.9998
 
              Baa    -0.0837    -3.228    -1.152    -1.077 -0.0364  0.9980 -0.0516
    15 N(14)  Bbb    -0.0728    -2.807    -1.002    -0.936  0.9991  0.0375  0.0214
              Bcc     0.1565     6.035     2.153     2.013 -0.0233  0.0508  0.9984
 
              Baa    -0.0025    -0.428    -0.153    -0.143  0.1478  0.1898  0.9706
    16 B(11)  Bbb     0.0004     0.075     0.027     0.025  0.9555  0.2261 -0.1897
              Bcc     0.0021     0.354     0.126     0.118 -0.2554  0.9555 -0.1479
 
              Baa    -0.0144    -7.246    -2.585    -2.417 -0.3649 -0.2007  0.9092
    17 F(19)  Bbb    -0.0126    -6.339    -2.262    -2.114 -0.2859  0.9535  0.0957
              Bcc     0.0270    13.584     4.847     4.531  0.8861  0.2250  0.4052
 
              Baa    -0.0127    -6.396    -2.282    -2.134  0.2865 -0.4374  0.8524
    18 F(19)  Bbb    -0.0107    -5.359    -1.912    -1.788 -0.1152  0.8675  0.4838
              Bcc     0.0234    11.755     4.195     3.921  0.9511  0.2368 -0.1982
 
              Baa    -0.0760    -2.932    -1.046    -0.978  0.1124  0.9935 -0.0160
    19 N(14)  Bbb    -0.0654    -2.523    -0.900    -0.841  0.9936 -0.1127 -0.0127
              Bcc     0.1414     5.454     1.946     1.819  0.0144  0.0144  0.9998
 
              Baa    -0.0700    -9.400    -3.354    -3.135  0.5150  0.8563 -0.0402
    20 C(13)  Bbb    -0.0642    -8.616    -3.074    -2.874  0.8571 -0.5150  0.0089
              Bcc     0.1343    18.016     6.428     6.009  0.0131  0.0390  0.9992
 
              Baa    -0.0331    -4.443    -1.585    -1.482  0.0077  0.0551  0.9984
    21 C(13)  Bbb     0.0102     1.365     0.487     0.455  0.2708  0.9611 -0.0551
              Bcc     0.0229     3.078     1.098     1.027  0.9626 -0.2708  0.0075
 
              Baa    -0.0762   -10.221    -3.647    -3.409  0.7717  0.6222 -0.1317
    22 C(13)  Bbb    -0.0659    -8.846    -3.157    -2.951 -0.6335  0.7704 -0.0723
              Bcc     0.1421    19.067     6.804     6.360  0.0565  0.1392  0.9886
 
              Baa    -0.0091    -1.218    -0.435    -0.406  0.9216  0.3765 -0.0946
    23 C(13)  Bbb     0.0024     0.320     0.114     0.107 -0.3871  0.9096 -0.1510
              Bcc     0.0067     0.898     0.320     0.300  0.0292  0.1758  0.9840
 
              Baa    -0.1713    12.394     4.422     4.134 -0.1115  0.9848 -0.1329
    24 O(17)  Bbb    -0.1598    11.563     4.126     3.857  0.9926  0.1038 -0.0631
              Bcc     0.3311   -23.957    -8.548    -7.991  0.0483  0.1390  0.9891
 
              Baa    -0.0816   -10.948    -3.907    -3.652  0.0079  0.0511  0.9987
    25 C(13)  Bbb     0.0388     5.213     1.860     1.739  0.3838  0.9220 -0.0502
              Bcc     0.0427     5.735     2.046     1.913  0.9234 -0.3837  0.0123
 
              Baa    -0.0610    -8.192    -2.923    -2.732  0.7193 -0.6946  0.0079
    26 C(13)  Bbb    -0.0604    -8.108    -2.893    -2.704  0.6925  0.7162 -0.0864
              Bcc     0.1215    16.299     5.816     5.437  0.0544  0.0676  0.9962
 
              Baa    -0.1125   -15.102    -5.389    -5.037  0.0254  0.0324  0.9992
    27 C(13)  Bbb     0.0497     6.671     2.380     2.225  0.7388  0.6727 -0.0406
              Bcc     0.0628     8.431     3.009     2.812 -0.6735  0.7392 -0.0069
 
              Baa    -0.0204    -2.742    -0.979    -0.915 -0.5234  0.3979  0.7535
    28 C(13)  Bbb    -0.0145    -1.944    -0.694    -0.648  0.7838 -0.1222  0.6089
              Bcc     0.0349     4.686     1.672     1.563  0.3343  0.9093 -0.2479
 
              Baa    -0.0130    -1.747    -0.623    -0.583  0.0029  0.7834 -0.6215
    29 C(13)  Bbb     0.0045     0.598     0.213     0.199 -0.0809  0.6197  0.7807
              Bcc     0.0086     1.150     0.410     0.383  0.9967  0.0480  0.0652
 
              Baa    -0.0005    -0.279    -0.100    -0.093 -0.2159 -0.5612  0.7990
    30 H(1)   Bbb    -0.0004    -0.234    -0.083    -0.078 -0.2142  0.8256  0.5220
              Bcc     0.0010     0.513     0.183     0.171  0.9526  0.0584  0.2985
 
              Baa    -0.0006    -0.337    -0.120    -0.112  0.0070  0.6138  0.7895
    31 H(1)   Bbb    -0.0004    -0.204    -0.073    -0.068 -0.3448  0.7425 -0.5742
              Bcc     0.0010     0.541     0.193     0.180  0.9386  0.2682 -0.2168
 
              Baa    -0.0005    -0.280    -0.100    -0.093  0.1170  0.7346 -0.6683
    32 H(1)   Bbb    -0.0004    -0.235    -0.084    -0.078  0.3200  0.6092  0.7256
              Bcc     0.0010     0.515     0.184     0.172  0.9402 -0.2987 -0.1638
 
              Baa    -0.0010    -0.522    -0.186    -0.174  0.0335  0.8164 -0.5765
    33 H(1)   Bbb    -0.0002    -0.130    -0.046    -0.043  0.0902  0.5720  0.8153
              Bcc     0.0012     0.652     0.233     0.218  0.9954 -0.0793 -0.0544
 
              Baa    -0.0028    -1.469    -0.524    -0.490  0.0800 -0.6597  0.7472
    34 H(1)   Bbb    -0.0006    -0.298    -0.106    -0.099  0.9645  0.2405  0.1091
              Bcc     0.0033     1.767     0.631     0.590 -0.2517  0.7120  0.6556
 
              Baa    -0.0061    -3.277    -1.169    -1.093  0.3542  0.9308 -0.0900
    35 H(1)   Bbb    -0.0020    -1.051    -0.375    -0.350 -0.0603  0.1188  0.9911
              Bcc     0.0081     4.327     1.544     1.443  0.9332 -0.3456  0.0982
 
              Baa    -0.0038    -2.036    -0.727    -0.679  0.0815  0.9944 -0.0672
    36 H(1)   Bbb    -0.0021    -1.146    -0.409    -0.382 -0.0192  0.0689  0.9974
              Bcc     0.0060     3.182     1.135     1.061  0.9965 -0.0800  0.0247
 
              Baa    -0.0036    -1.896    -0.676    -0.632  0.0429 -0.0571  0.9974
    37 H(1)   Bbb    -0.0023    -1.252    -0.447    -0.418 -0.4275  0.9013  0.0699
              Bcc     0.0059     3.148     1.123     1.050  0.9030  0.4294 -0.0142
 
              Baa    -0.0095    -5.078    -1.812    -1.694  0.7168  0.6972 -0.0106
    38 H(1)   Bbb    -0.0019    -1.024    -0.365    -0.342  0.0042  0.0108  0.9999
              Bcc     0.0114     6.102     2.177     2.035 -0.6972  0.7168 -0.0048
 
              Baa    -0.0026    -1.388    -0.495    -0.463  0.7425 -0.6691 -0.0304
    39 H(1)   Bbb    -0.0023    -1.243    -0.443    -0.415  0.0316 -0.0104  0.9994
              Bcc     0.0049     2.630     0.939     0.877  0.6691  0.7431 -0.0134
 
              Baa    -0.0028    -1.512    -0.539    -0.504  0.3741  0.6831  0.6273
    40 H(1)   Bbb    -0.0021    -1.133    -0.404    -0.378 -0.3468 -0.5243  0.7777
              Bcc     0.0050     2.645     0.944     0.882  0.8601 -0.5085  0.0408
 
              Baa    -0.0090    -4.791    -1.709    -1.598  0.9991  0.0126 -0.0400
    41 H(1)   Bbb    -0.0019    -1.000    -0.357    -0.334  0.0381  0.1266  0.9912
              Bcc     0.0109     5.791     2.066     1.932 -0.0176  0.9919 -0.1260
 
              Baa    -0.0023    -1.227    -0.438    -0.409  0.0380 -0.4611  0.8865
    42 H(1)   Bbb    -0.0022    -1.175    -0.419    -0.392  0.0441  0.8871  0.4595
              Bcc     0.0045     2.402     0.857     0.801  0.9983 -0.0217 -0.0540
 
              Baa    -0.0036    -1.942    -0.693    -0.648 -0.0473  0.9936 -0.1030
    43 H(1)   Bbb    -0.0019    -0.994    -0.355    -0.332  0.0136  0.1037  0.9945
              Bcc     0.0055     2.936     1.048     0.979  0.9988  0.0457 -0.0184
 
              Baa    -0.0065    -3.493    -1.246    -1.165 -0.3025  0.9493 -0.0856
    44 H(1)   Bbb    -0.0020    -1.066    -0.380    -0.355  0.0656  0.1104  0.9917
              Bcc     0.0085     4.559     1.627     1.521  0.9509  0.2944 -0.0957
 
              Baa    -0.0028    -1.477    -0.527    -0.493 -0.1234 -0.6557  0.7449
    45 H(1)   Bbb    -0.0006    -0.295    -0.105    -0.098  0.9479 -0.3001 -0.1071
              Bcc     0.0033     1.771     0.632     0.591  0.2937  0.6929  0.6585
 
              Baa    -0.0010    -0.523    -0.187    -0.175 -0.0015  0.8114 -0.5845
    46 H(1)   Bbb    -0.0003    -0.139    -0.050    -0.046 -0.0636  0.5833  0.8098
              Bcc     0.0012     0.663     0.236     0.221  0.9980  0.0384  0.0507
 

 ---------------------------------------------------------------------------------

 No NMR shielding tensors so no spin-rotation constants.
 Leave Link  601 at Thu Nov  6 03:43:33 2025, MaxMem= 30870077440 cpu:             120.4 elap:               2.1
 (Enter /public/software/gauss/g16/l9999.exe)
 1\1\GINC-CU015\SP\UM062X\def2TZVPP\C22H17B1F2N2O2(1-,2)\BAIDING\06-Nov
 -2025\0\\#p M062X/DEF2TZVPP scrf=(solvent=water) em=GD3\\Energy calcul
 ation for M100032027_reduced\\-1,2\C,0,7.378349,0.059374,-0.002646\C,0
 ,5.870334,0.051746,0.013353\C,0,5.130996,0.786845,-0.924011\C,0,3.7376
 73,0.758981,-0.929525\C,0,3.023945,-0.008351,0.009545\C,0,1.542589,-0.
 032095,0.01039\C,0,0.803893,1.175022,0.018689\C,0,1.249842,2.527997,0.
 097195\C,0,0.128693,3.33291,0.108135\C,0,-1.01551,2.492287,0.050134\C,
 0,-2.386286,2.84925,0.061847\C,0,-2.890525,4.127899,0.074832\C,0,-4.30
 6585,4.380138,0.095064\O,0,-5.203202,3.514731,0.104925\N,0,-0.573734,1
 .175809,-0.002718\B,0,-1.46977,-0.08301,-0.068699\F,0,-2.198035,-0.104
 228,-1.270454\F,0,-2.383661,-0.053092,1.005663\N,0,-0.548002,-1.323402
 ,0.026632\C,0,-0.919381,-2.664756,-0.039421\C,0,-2.21141,-3.249841,-0.
 048359\C,0,-3.471268,-2.71391,0.069172\C,0,-4.638852,-3.55571,0.016709
 \O,0,-4.65294,-4.789616,-0.155533\C,0,0.266427,-3.441923,-0.10339\C,0,
 1.349756,-2.587425,-0.077715\C,0,0.837376,-1.26274,0.003095\C,0,3.7668
 56,-0.742843,0.952689\C,0,5.159734,-0.709993,0.952331\H,0,7.788769,-0.
 070161,1.003249\H,0,7.769577,-0.759513,-0.61975\H,0,7.76878,0.993114,-
 0.417743\H,0,5.653896,1.385525,-1.665508\H,0,3.194607,1.325457,-1.6794
 29\H,0,2.281319,2.842901,0.152085\H,0,0.102772,4.412456,0.167146\H,0,-
 3.108589,2.0385,0.068271\H,0,-2.235714,4.99472,0.069437\H,0,-4.590506,
 5.450159,0.101027\H,0,-2.172634,-4.332114,-0.163325\H,0,-3.634277,-1.6
 571,0.228334\H,0,-5.600636,-3.02178,0.144514\H,0,0.281015,-4.52254,-0.
 158819\H,0,2.395787,-2.850586,-0.122074\H,0,3.246128,-1.324652,1.70663
 1\H,0,5.705257,-1.27839,1.701373\\Version=ES64L-G16RevA.03\State=2-A\H
 F=-1333.3751979\S2=0.821194\S2-1=0.\S2A=0.753451\RMSD=6.923e-09\Dipole
 =7.9452362,1.9364029,0.240764\Quadrupole=-19.0047832,-0.0146704,19.019
 4536,-11.9096151,-1.581631,-4.158757\PG=C01 [X(C22H17B1F2N2O2)]\\@


 STEINBACH'S GUIDELINES FOR SYSTEMS PROGRAMMING:
 NEVER TEST FOR AN ERROR CONDITION YOU DON'T KNOW HOW
 TO HANDLE.
 Job cpu time:       0 days 15 hours 14 minutes 47.0 seconds.
 Elapsed time:       0 days  0 hours 14 minutes 27.8 seconds.
 File lengths (MBytes):  RWF=   1404 Int=      0 D2E=      0 Chk=     91 Scr=      1
 Normal termination of Gaussian 16 at Thu Nov  6 03:43:33 2025.
