 Entering Gaussian System, Link 0=g16
 Input=M100034835_sp.gjf
 Output=M100034835_sp.log
 Initial command:
 /public/software/gauss/g16/l1.exe "/public/home/baiding/1101_v2_sp/tmp_M100034835_sp_1568608/Gau-4190635.inp" -scrdir="/public/home/baiding/1101_v2_sp/tmp_M100034835_sp_1568608/"
 Entering Link 1 = /public/software/gauss/g16/l1.exe PID=   4190636.
  
 Copyright (c) 1988,1990,1992,1993,1995,1998,2003,2009,2016,
            Gaussian, Inc.  All Rights Reserved.
  
 This is part of the Gaussian(R) 16 program.  It is based on
 the Gaussian(R) 09 system (copyright 2009, Gaussian, Inc.),
 the Gaussian(R) 03 system (copyright 2003, Gaussian, Inc.),
 the Gaussian(R) 98 system (copyright 1998, Gaussian, Inc.),
 the Gaussian(R) 94 system (copyright 1995, Gaussian, Inc.),
 the Gaussian 92(TM) system (copyright 1992, Gaussian, Inc.),
 the Gaussian 90(TM) system (copyright 1990, Gaussian, Inc.),
 the Gaussian 88(TM) system (copyright 1988, Gaussian, Inc.),
 the Gaussian 86(TM) system (copyright 1986, Carnegie Mellon
 University), and the Gaussian 82(TM) system (copyright 1983,
 Carnegie Mellon University). Gaussian is a federally registered
 trademark of Gaussian, Inc.
  
 This software contains proprietary and confidential information,
 including trade secrets, belonging to Gaussian, Inc.
  
 This software is provided under written license and may be
 used, copied, transmitted, or stored only in accord with that
 written license.
  
 The following legend is applicable only to US Government
 contracts under FAR:
  
                    RESTRICTED RIGHTS LEGEND
  
 Use, reproduction and disclosure by the US Government is
 subject to restrictions as set forth in subparagraphs (a)
 and (c) of the Commercial Computer Software - Restricted
 Rights clause in FAR 52.227-19.
  
 Gaussian, Inc.
 340 Quinnipiac St., Bldg. 40, Wallingford CT 06492
  
  
 ---------------------------------------------------------------
 Warning -- This program may not be used in any manner that
 competes with the business of Gaussian, Inc. or will provide
 assistance to any competitor of Gaussian, Inc.  The licensee
 of this program is prohibited from giving any competitor of
 Gaussian, Inc. access to this program.  By using this program,
 the user acknowledges that Gaussian, Inc. is engaged in the
 business of creating and licensing software in the field of
 computational chemistry and represents and warrants to the
 licensee that it is not a competitor of Gaussian, Inc. and that
 it will not use this program in any manner prohibited above.
 ---------------------------------------------------------------
  

 Cite this work as:
 Gaussian 16, Revision A.03,
 M. J. Frisch, G. W. Trucks, H. B. Schlegel, G. E. Scuseria, 
 M. A. Robb, J. R. Cheeseman, G. Scalmani, V. Barone, 
 G. A. Petersson, H. Nakatsuji, X. Li, M. Caricato, A. V. Marenich, 
 J. Bloino, B. G. Janesko, R. Gomperts, B. Mennucci, H. P. Hratchian, 
 J. V. Ortiz, A. F. Izmaylov, J. L. Sonnenberg, D. Williams-Young, 
 F. Ding, F. Lipparini, F. Egidi, J. Goings, B. Peng, A. Petrone, 
 T. Henderson, D. Ranasinghe, V. G. Zakrzewski, J. Gao, N. Rega, 
 G. Zheng, W. Liang, M. Hada, M. Ehara, K. Toyota, R. Fukuda, 
 J. Hasegawa, M. Ishida, T. Nakajima, Y. Honda, O. Kitao, H. Nakai, 
 T. Vreven, K. Throssell, J. A. Montgomery, Jr., J. E. Peralta, 
 F. Ogliaro, M. J. Bearpark, J. J. Heyd, E. N. Brothers, K. N. Kudin, 
 V. N. Staroverov, T. A. Keith, R. Kobayashi, J. Normand, 
 K. Raghavachari, A. P. Rendell, J. C. Burant, S. S. Iyengar, 
 J. Tomasi, M. Cossi, J. M. Millam, M. Klene, C. Adamo, R. Cammi, 
 J. W. Ochterski, R. L. Martin, K. Morokuma, O. Farkas, 
 J. B. Foresman, and D. J. Fox, Gaussian, Inc., Wallingford CT, 2016.
 
 ******************************************
 Gaussian 16:  ES64L-G16RevA.03 25-Dec-2016
                 7-Nov-2025 
 ******************************************
 %nprocshared=64
 Will use up to   64 processors via shared memory.
 %mem=230GB
 %chk=M100034835_sp.chk
 ----------------------------------------------
 #p M062X/DEF2TZVPP scrf=(solvent=water) em=GD3
 ----------------------------------------------
 1/38=1,172=1/1;
 2/12=2,17=6,18=5,40=1/2;
 3/5=44,7=202,11=2,25=1,30=1,70=2201,72=1,74=-55,124=31/1,2,3;
 4//1;
 5/5=2,38=5,53=1/2;
 6/7=2,8=2,9=2,10=2,28=1/1;
 99/5=1,9=1/99;
 Leave Link    1 at Fri Nov  7 01:07:08 2025, MaxMem= 30870077440 cpu:              19.0 elap:               0.3
 (Enter /public/software/gauss/g16/l101.exe)
 ---------------------------------
 Energy calculation for M100034835
 ---------------------------------
 Symbolic Z-matrix:
 Charge =  0 Multiplicity = 1
 O                    -1.30197   8.6343    0.3076 
 N                    -0.3154    8.02598   0.73358 
 O                     0.58852   8.56923   1.37587 
 C                    -0.21271   6.59295   0.46461 
 C                     0.89406   5.89513   0.94691 
 C                     0.98816   4.53381   0.68534 
 C                    -0.01773   3.87493  -0.04428 
 C                     0.07768   2.41895  -0.31342 
 C                    -0.96664   1.5752    0.06089 
 C                    -2.15814   1.8355    0.79602 
 C                    -2.80481   0.63205   0.98549 
 C                    -2.00033  -0.36252   0.36862 
 S                    -2.25624  -2.10915   0.33005 
 C                    -3.95574  -2.23363   0.77856 
 C                    -4.46319  -2.5893    2.00533 
 C                    -5.87576  -2.71427   2.01169 
 C                    -6.46025  -2.45285   0.78783 
 C                    -7.87654  -2.46245   0.4708 
 C                    -8.93009  -2.31006   1.34729 
 C                    -10.20462  -2.38745   0.7182 
 C                    -10.12323  -2.59209  -0.63231 
 S                    -8.47524  -2.70991  -1.16264 
 S                    -5.23899  -2.04776  -0.40337 
 N                    -0.90717   0.19855  -0.18883 
 B                     0.21375  -0.5205   -1.00639 
 F                    -0.2793   -0.92444  -2.24424 
 F                     0.65027  -1.62892  -0.27382 
 N                     1.35391   0.5248   -1.19627 
 C                     2.5557    0.33498  -1.80997 
 S                     3.11609  -1.25419  -2.38461 
 C                     4.15488  -1.77535  -1.04557 
 C                     3.77979  -2.38964   0.12496 
 C                     4.87832  -2.72636   0.95715 
 C                     6.1049   -2.37212   0.42964 
 C                     7.41156  -2.57106   1.03048 
 C                     7.70267  -2.73588   2.36809 
 C                     9.08977  -2.92815   2.62647 
 C                     9.85427  -2.90443   1.49222 
 S                     8.88355  -2.65929   0.07388 
 S                     5.89688  -1.58934  -1.12558 
 C                     3.22449   1.56221  -1.94871 
 C                     2.39666   2.53917  -1.40567 
 C                     1.23442   1.88771  -0.93441 
 C                    -1.12314   4.60716  -0.51303 
 C                    -1.22492   5.97063  -0.26439 
 H                     1.65837   6.4071    1.51695 
 H                     1.83354   3.97405   1.06806 
 H                    -2.47047   2.80328   1.16041 
 H                    -3.72558   0.45095   1.5189 
 H                    -3.83762  -2.7658    2.87259 
 H                    -6.45028  -3.0022    2.884 
 H                    -8.78769  -2.12908   2.40639 
 H                    -11.14466  -2.28523   1.24796 
 H                    -10.92581  -2.68351  -1.35188 
 H                     2.74386  -2.58922   0.36889 
 H                     4.77812  -3.23859   1.90699 
 H                     6.9429   -2.69967   3.1403 
 H                     9.50302  -3.06868   3.61868 
 H                     10.92597  -3.01588   1.39582 
 H                     4.19634   1.69575  -2.40168 
 H                     2.58812   3.60093  -1.35582 
 H                    -1.89337   4.11026  -1.09132 
 H                    -2.06787   6.54229  -0.63029 
 
 ITRead=  0  0  0  0  0  0  0  0  0  0  0  0  0  0  0  0  0  0  0  0
 ITRead=  0  0  0  0  0  0  0  0  0  0  0  0  0  0  0  0  0  0  0  0
 ITRead=  0  0  0  0  0  0  0  0  0  0  0  0  0  0  0  0  0  0  0  0
 ITRead=  0  0  0
 MicOpt= -1 -1 -1 -1 -1 -1 -1 -1 -1 -1 -1 -1 -1 -1 -1 -1 -1 -1 -1 -1
 MicOpt= -1 -1 -1 -1 -1 -1 -1 -1 -1 -1 -1 -1 -1 -1 -1 -1 -1 -1 -1 -1
 MicOpt= -1 -1 -1 -1 -1 -1 -1 -1 -1 -1 -1 -1 -1 -1 -1 -1 -1 -1 -1 -1
 MicOpt= -1 -1 -1
 NAtoms=     63 NQM=       63 NQMF=       0 NMMI=      0 NMMIF=      0
                NMic=       0 NMicF=      0.
                    Isotopes and Nuclear Properties:
 (Nuclear quadrupole moments (NQMom) in fm**2, nuclear magnetic moments (NMagM)
  in nuclear magnetons)

  Atom         1           2           3           4           5           6           7           8           9          10
 IAtWgt=          16          14          16          12          12          12          12          12          12          12
 AtmWgt=  15.9949146  14.0030740  15.9949146  12.0000000  12.0000000  12.0000000  12.0000000  12.0000000  12.0000000  12.0000000
 NucSpn=           0           2           0           0           0           0           0           0           0           0
 AtZEff=  -0.0000000  -0.0000000  -0.0000000  -0.0000000  -0.0000000  -0.0000000  -0.0000000  -0.0000000  -0.0000000  -0.0000000
 NQMom=    0.0000000   2.0440000   0.0000000   0.0000000   0.0000000   0.0000000   0.0000000   0.0000000   0.0000000   0.0000000
 NMagM=    0.0000000   0.4037610   0.0000000   0.0000000   0.0000000   0.0000000   0.0000000   0.0000000   0.0000000   0.0000000
 AtZNuc=   8.0000000   7.0000000   8.0000000   6.0000000   6.0000000   6.0000000   6.0000000   6.0000000   6.0000000   6.0000000

  Atom        11          12          13          14          15          16          17          18          19          20
 IAtWgt=          12          12          32          12          12          12          12          12          12          12
 AtmWgt=  12.0000000  12.0000000  31.9720718  12.0000000  12.0000000  12.0000000  12.0000000  12.0000000  12.0000000  12.0000000
 NucSpn=           0           0           0           0           0           0           0           0           0           0
 AtZEff=  -0.0000000  -0.0000000  -0.0000000  -0.0000000  -0.0000000  -0.0000000  -0.0000000  -0.0000000  -0.0000000  -0.0000000
 NQMom=    0.0000000   0.0000000   0.0000000   0.0000000   0.0000000   0.0000000   0.0000000   0.0000000   0.0000000   0.0000000
 NMagM=    0.0000000   0.0000000   0.0000000   0.0000000   0.0000000   0.0000000   0.0000000   0.0000000   0.0000000   0.0000000
 AtZNuc=   6.0000000   6.0000000  16.0000000   6.0000000   6.0000000   6.0000000   6.0000000   6.0000000   6.0000000   6.0000000

  Atom        21          22          23          24          25          26          27          28          29          30
 IAtWgt=          12          32          32          14          11          19          19          14          12          32
 AtmWgt=  12.0000000  31.9720718  31.9720718  14.0030740  11.0093053  18.9984033  18.9984033  14.0030740  12.0000000  31.9720718
 NucSpn=           0           0           0           2           3           1           1           2           0           0
 AtZEff=  -0.0000000  -0.0000000  -0.0000000  -0.0000000  -0.0000000  -0.0000000  -0.0000000  -0.0000000  -0.0000000  -0.0000000
 NQMom=    0.0000000   0.0000000   0.0000000   2.0440000   4.0590000   0.0000000   0.0000000   2.0440000   0.0000000   0.0000000
 NMagM=    0.0000000   0.0000000   0.0000000   0.4037610   2.6886370   2.6288670   2.6288670   0.4037610   0.0000000   0.0000000
 AtZNuc=   6.0000000  16.0000000  16.0000000   7.0000000   5.0000000   9.0000000   9.0000000   7.0000000   6.0000000  16.0000000

  Atom        31          32          33          34          35          36          37          38          39          40
 IAtWgt=          12          12          12          12          12          12          12          12          32          32
 AtmWgt=  12.0000000  12.0000000  12.0000000  12.0000000  12.0000000  12.0000000  12.0000000  12.0000000  31.9720718  31.9720718
 NucSpn=           0           0           0           0           0           0           0           0           0           0
 AtZEff=  -0.0000000  -0.0000000  -0.0000000  -0.0000000  -0.0000000  -0.0000000  -0.0000000  -0.0000000  -0.0000000  -0.0000000
 NQMom=    0.0000000   0.0000000   0.0000000   0.0000000   0.0000000   0.0000000   0.0000000   0.0000000   0.0000000   0.0000000
 NMagM=    0.0000000   0.0000000   0.0000000   0.0000000   0.0000000   0.0000000   0.0000000   0.0000000   0.0000000   0.0000000
 AtZNuc=   6.0000000   6.0000000   6.0000000   6.0000000   6.0000000   6.0000000   6.0000000   6.0000000  16.0000000  16.0000000

  Atom        41          42          43          44          45          46          47          48          49          50
 IAtWgt=          12          12          12          12          12           1           1           1           1           1
 AtmWgt=  12.0000000  12.0000000  12.0000000  12.0000000  12.0000000   1.0078250   1.0078250   1.0078250   1.0078250   1.0078250
 NucSpn=           0           0           0           0           0           1           1           1           1           1
 AtZEff=  -0.0000000  -0.0000000  -0.0000000  -0.0000000  -0.0000000  -0.0000000  -0.0000000  -0.0000000  -0.0000000  -0.0000000
 NQMom=    0.0000000   0.0000000   0.0000000   0.0000000   0.0000000   0.0000000   0.0000000   0.0000000   0.0000000   0.0000000
 NMagM=    0.0000000   0.0000000   0.0000000   0.0000000   0.0000000   2.7928460   2.7928460   2.7928460   2.7928460   2.7928460
 AtZNuc=   6.0000000   6.0000000   6.0000000   6.0000000   6.0000000   1.0000000   1.0000000   1.0000000   1.0000000   1.0000000

  Atom        51          52          53          54          55          56          57          58          59          60
 IAtWgt=           1           1           1           1           1           1           1           1           1           1
 AtmWgt=   1.0078250   1.0078250   1.0078250   1.0078250   1.0078250   1.0078250   1.0078250   1.0078250   1.0078250   1.0078250
 NucSpn=           1           1           1           1           1           1           1           1           1           1
 AtZEff=  -0.0000000  -0.0000000  -0.0000000  -0.0000000  -0.0000000  -0.0000000  -0.0000000  -0.0000000  -0.0000000  -0.0000000
 NQMom=    0.0000000   0.0000000   0.0000000   0.0000000   0.0000000   0.0000000   0.0000000   0.0000000   0.0000000   0.0000000
 NMagM=    2.7928460   2.7928460   2.7928460   2.7928460   2.7928460   2.7928460   2.7928460   2.7928460   2.7928460   2.7928460
 AtZNuc=   1.0000000   1.0000000   1.0000000   1.0000000   1.0000000   1.0000000   1.0000000   1.0000000   1.0000000   1.0000000

  Atom        61          62          63
 IAtWgt=           1           1           1
 AtmWgt=   1.0078250   1.0078250   1.0078250
 NucSpn=           1           1           1
 AtZEff=  -0.0000000  -0.0000000  -0.0000000
 NQMom=    0.0000000   0.0000000   0.0000000
 NMagM=    2.7928460   2.7928460   2.7928460
 AtZNuc=   1.0000000   1.0000000   1.0000000
 Leave Link  101 at Fri Nov  7 01:07:08 2025, MaxMem= 30870077440 cpu:               3.9 elap:               0.1
 (Enter /public/software/gauss/g16/l202.exe)
 Stoichiometry    C31H18BF2N3O2S6
 Framework group  C1[X(C31H18BF2N3O2S6)]
 Deg. of freedom   183
 Full point group                 C1      NOp   1
 Largest Abelian subgroup         C1      NOp   1
 Largest concise Abelian subgroup C1      NOp   1
                         Standard orientation:                         
 ---------------------------------------------------------------------
 Center     Atomic      Atomic             Coordinates (Angstroms)
 Number     Number       Type             X           Y           Z
 ---------------------------------------------------------------------
      1          8           0       -1.301967    8.634304    0.307597
      2          7           0       -0.315397    8.025976    0.733576
      3          8           0        0.588523    8.569232    1.375871
      4          6           0       -0.212712    6.592955    0.464605
      5          6           0        0.894063    5.895129    0.946912
      6          6           0        0.988155    4.533810    0.685337
      7          6           0       -0.017726    3.874925   -0.044284
      8          6           0        0.077684    2.418950   -0.313422
      9          6           0       -0.966638    1.575200    0.060888
     10          6           0       -2.158142    1.835504    0.796023
     11          6           0       -2.804811    0.632049    0.985493
     12          6           0       -2.000332   -0.362521    0.368621
     13         16           0       -2.256235   -2.109154    0.330054
     14          6           0       -3.955744   -2.233628    0.778555
     15          6           0       -4.463188   -2.589298    2.005331
     16          6           0       -5.875755   -2.714265    2.011691
     17          6           0       -6.460254   -2.452853    0.787827
     18          6           0       -7.876536   -2.462448    0.470801
     19          6           0       -8.930094   -2.310061    1.347285
     20          6           0      -10.204615   -2.387450    0.718200
     21          6           0      -10.123230   -2.592090   -0.632308
     22         16           0       -8.475242   -2.709907   -1.162638
     23         16           0       -5.238992   -2.047762   -0.403374
     24          7           0       -0.907165    0.198549   -0.188826
     25          5           0        0.213745   -0.520502   -1.006395
     26          9           0       -0.279296   -0.924438   -2.244244
     27          9           0        0.650265   -1.628918   -0.273821
     28          7           0        1.353910    0.524797   -1.196271
     29          6           0        2.555699    0.334982   -1.809965
     30         16           0        3.116088   -1.254185   -2.384609
     31          6           0        4.154881   -1.775348   -1.045572
     32          6           0        3.779791   -2.389636    0.124957
     33          6           0        4.878322   -2.726364    0.957146
     34          6           0        6.104900   -2.372123    0.429637
     35          6           0        7.411561   -2.571057    1.030480
     36          6           0        7.702669   -2.735881    2.368085
     37          6           0        9.089774   -2.928148    2.626465
     38          6           0        9.854272   -2.904429    1.492215
     39         16           0        8.883551   -2.659294    0.073882
     40         16           0        5.896876   -1.589338   -1.125583
     41          6           0        3.224491    1.562209   -1.948706
     42          6           0        2.396662    2.539168   -1.405667
     43          6           0        1.234421    1.887707   -0.934409
     44          6           0       -1.123142    4.607160   -0.513026
     45          6           0       -1.224916    5.970633   -0.264394
     46          1           0        1.658373    6.407099    1.516950
     47          1           0        1.833540    3.974049    1.068056
     48          1           0       -2.470467    2.803275    1.160408
     49          1           0       -3.725581    0.450945    1.518900
     50          1           0       -3.837620   -2.765798    2.872593
     51          1           0       -6.450279   -3.002202    2.883996
     52          1           0       -8.787691   -2.129081    2.406393
     53          1           0      -11.144660   -2.285234    1.247960
     54          1           0      -10.925806   -2.683509   -1.351880
     55          1           0        2.743856   -2.589220    0.368886
     56          1           0        4.778118   -3.238591    1.906985
     57          1           0        6.942898   -2.699670    3.140304
     58          1           0        9.503024   -3.068682    3.618681
     59          1           0       10.925973   -3.015883    1.395817
     60          1           0        4.196338    1.695745   -2.401680
     61          1           0        2.588119    3.600933   -1.355824
     62          1           0       -1.893368    4.110256   -1.091317
     63          1           0       -2.067870    6.542288   -0.630286
 ---------------------------------------------------------------------
 Rotational constants (GHZ):           0.0559114           0.0254603           0.0188513
 Leave Link  202 at Fri Nov  7 01:07:08 2025, MaxMem= 30870077440 cpu:               0.4 elap:               0.0
 (Enter /public/software/gauss/g16/l301.exe)
 Standard basis: def2TZVPP (5D, 7F)
 Ernie: Thresh=  0.10000D-02 Tol=  0.10000D-05 Strict=F.
 There are  1962 symmetry adapted cartesian basis functions of A   symmetry.
 There are  1713 symmetry adapted basis functions of A   symmetry.
  1713 basis functions,  2709 primitive gaussians,  1962 cartesian basis functions
   180 alpha electrons      180 beta electrons
       nuclear repulsion energy      6044.0815976783 Hartrees.
 IExCor= 4336 DFT=T Ex+Corr=M062X ExCW=0 ScaHFX=  0.540000
 ScaDFX=  1.000000  1.000000  1.000000  1.000000 ScalE2=  1.000000  1.000000
 IRadAn=      5 IRanWt=     -1 IRanGd=            0 ICorTp=0 IEmpDi=131
 NAtoms=   63 NActive=   63 NUniq=   63 SFac= 1.00D+00 NAtFMM=   60 NAOKFM=T Big=T
 Integral buffers will be    131072 words long.
 Raffenetti 2 integral format.
 Two-electron integral symmetry is turned on.
 R6Disp:  Grimme-D3 Dispersion energy=       -0.0048739303 Hartrees.
 Nuclear repulsion after empirical dispersion term =     6044.0767237480 Hartrees.
 ------------------------------------------------------------------------------
 Polarizable Continuum Model (PCM)
 =================================
 Model                : PCM.
 Atomic radii         : UFF (Universal Force Field).
 Polarization charges : Total charges.
 Charge compensation  : None.
 Solution method      : On-the-fly selection.
 Cavity type          : Scaled VdW (van der Waals Surface) (Alpha=1.100).
 Cavity algorithm     : GePol (No added spheres)
                        Default sphere list used, NSphG=   63.
                        Lebedev-Laikov grids with approx.  5.0 points / Ang**2.
                        Smoothing algorithm: York/Karplus (Gamma=1.0000).
                        Polarization charges: spherical gaussians, with
                                              point-specific exponents (IZeta= 3).
                        Self-potential: point-specific (ISelfS= 7).
                        Self-field    : sphere-specific E.n sum rule (ISelfD= 2).
 Solvent              : Water, Eps=  78.355300 Eps(inf)=   1.777849
 ------------------------------------------------------------------------------
 GePol: Number of generator spheres                  =      63
 GePol: Total number of spheres                      =      63
 GePol: Number of exposed spheres                    =      63 (100.00%)
 GePol: Number of points                             =    5551
 GePol: Average weight of points                     =       0.13
 GePol: Minimum weight of points                     =   0.25D-11
 GePol: Maximum weight of points                     =    0.20577
 GePol: Number of points with low weight             =     288
 GePol: Fraction of low-weight points (<1% of avg)   =       5.19%
 GePol: Cavity surface area                          =    703.877 Ang**2
 GePol: Cavity volume                                =    811.380 Ang**3
 Leave Link  301 at Fri Nov  7 01:07:08 2025, MaxMem= 30870077440 cpu:               4.8 elap:               0.1
 (Enter /public/software/gauss/g16/l302.exe)
 NPDir=0 NMtPBC=     1 NCelOv=     1 NCel=       1 NClECP=     1 NCelD=      1
         NCelK=      1 NCelE2=     1 NClLst=     1 CellRange=     0.0.
 One-electron integrals computed using PRISM.
 One-electron integral symmetry used in STVInt
   1 Symmetry operations used in ECPInt.
 ECPInt:  NShTT=  193131 NPrTT=  591363 LenC2=  112889 LenP2D=  225909.
 LDataN:  DoStor=T MaxTD1= 6 Len=  172
 NBasis=  1713 RedAO= T EigKep=  7.04D-06  NBF=  1713
 NBsUse=  1713 1.00D-06 EigRej= -1.00D+00 NBFU=  1713
 Precomputing XC quadrature grid using
 IXCGrd= 4 IRadAn=           5 IRanWt=          -1 IRanGd=           0 AccXCQ= 0.00D+00.
 Generated NRdTot=       0 NPtTot=           0 NUsed=           0 NTot=          32
 NSgBfM=  1597  1586  1587  1588  1597 MxSgAt=    63 MxSgA2=    63.
 Leave Link  302 at Fri Nov  7 01:07:16 2025, MaxMem= 30870077440 cpu:             477.6 elap:               7.5
 (Enter /public/software/gauss/g16/l303.exe)
 DipDrv:  MaxL=1.
 Leave Link  303 at Fri Nov  7 01:07:16 2025, MaxMem= 30870077440 cpu:              23.3 elap:               0.4
 (Enter /public/software/gauss/g16/l401.exe)
 ExpMin= 6.06D-02 ExpMax= 6.07D+04 ExpMxC= 2.07D+03 IAcc=3 IRadAn=         5 AccDes= 0.00D+00
 Harris functional with IExCor= 1009 and IRadAn=       5 diagonalized for initial guess.
 HarFok:  IExCor= 1009 AccDes= 0.00D+00 IRadAn=         5 IDoV= 1 UseB2=F ITyADJ=14
 ICtDFT=  3500011 ScaDFX=  1.000000  1.000000  1.000000  1.000000
 FoFCou: FMM=F IPFlag=           0 FMFlag=      100000 FMFlg1=        2001
         NFxFlg=           0 DoJE=T BraDBF=F KetDBF=T FulRan=T
         wScrn=  0.000000 ICntrl=       500 IOpCl=  0 I1Cent=   200000004 NGrid=           0
         NMat0=    1 NMatS0=      1 NMatT0=    0 NMatD0=    1 NMtDS0=    0 NMtDT0=    0
 Petite list used in FoFCou.
 Harris En= -4118.59897818290    
 JPrj=0 DoOrth=F DoCkMO=F.
 Leave Link  401 at Fri Nov  7 01:07:25 2025, MaxMem= 30870077440 cpu:             513.6 elap:               8.1
 (Enter /public/software/gauss/g16/l502.exe)
 Integral symmetry usage will be decided dynamically.
 Closed shell SCF:
 Using DIIS extrapolation, IDIIS=  1040.
 NGot= 30870077440 LenX= 30862236753 LenY= 30858385347
 Requested convergence on RMS density matrix=1.00D-08 within 128 cycles.
 Requested convergence on MAX density matrix=1.00D-06.
 Requested convergence on             energy=1.00D-06.
 No special actions if energy rises.
 Fock matrices will be formed incrementally for  20 cycles.

 Cycle   1  Pass 1  IDiag  1:
 FoFJK:  IHMeth= 1 ICntrl=       0 DoSepK=F KAlg= 0 I1Cent=           0 FoldK=F
 IRaf= 540000000 NMat=       1 IRICut=       1 DoRegI=T DoRafI=F ISym2E= 0 IDoP0=0 IntGTp=1.
 FoFCou: FMM=T IPFlag=           0 FMFlag=      100000 FMFlg1=        2001
         NFxFlg=           0 DoJE=F BraDBF=F KetDBF=F FulRan=T
         wScrn=  0.000000 ICntrl=         0 IOpCl=  0 I1Cent=           0 NGrid=           0
         NMat0=    1 NMatS0=      1 NMatT0=    0 NMatD0=    1 NMtDS0=    0 NMtDT0=    0
 Symmetry not used in FoFCou.
 FMM levels:  10  Number of levels for PrismC:   9
 Inv3:  Mode=1 IEnd=    92440803.
 Iteration    1 A*A^-1 deviation from unit magnitude is 2.33D-14 for   1532.
 Iteration    1 A*A^-1 deviation from orthogonality  is 7.26D-15 for   5525   1906.
 Iteration    1 A^-1*A deviation from unit magnitude is 2.11D-14 for   5539.
 Iteration    1 A^-1*A deviation from orthogonality  is 5.57D-15 for   3555    766.
 E= -4119.15115405684    
 DIIS: error= 2.69D-02 at cycle   1 NSaved=   1.
 NSaved= 1 IEnMin= 1 EnMin= -4119.15115405684     IErMin= 1 ErrMin= 2.69D-02
 ErrMax= 2.69D-02  0.00D+00 EMaxC= 1.00D-01 BMatC= 1.81D+00 BMatP= 1.81D+00
 IDIUse=3 WtCom= 7.31D-01 WtEn= 2.69D-01
 Coeff-Com:  0.100D+01
 Coeff-En:   0.100D+01
 Coeff:      0.100D+01
 Gap=     0.233 Goal=   None    Shift=    0.000
 GapD=    0.233 DampG=1.000 DampE=0.500 DampFc=0.5000 IDamp=-1.
 Damping current iteration by 5.00D-01
 RMSDP=1.50D-03 MaxDP=2.15D-01              OVMax= 3.02D-01

 Cycle   2  Pass 1  IDiag  1:
 RMSU=  7.49D-04    CP:  9.92D-01
 E= -4119.77878843072     Delta-E=       -0.627634373875 Rises=F Damp=T
 DIIS: error= 4.97D-03 at cycle   2 NSaved=   2.
 NSaved= 2 IEnMin= 2 EnMin= -4119.77878843072     IErMin= 2 ErrMin= 4.97D-03
 ErrMax= 4.97D-03  0.00D+00 EMaxC= 1.00D-01 BMatC= 1.49D-01 BMatP= 1.81D+00
 IDIUse=3 WtCom= 9.50D-01 WtEn= 4.97D-02
 Coeff-Com:  0.193D-01 0.981D+00
 Coeff-En:   0.118D+00 0.882D+00
 Coeff:      0.242D-01 0.976D+00
 Gap=     0.202 Goal=   None    Shift=    0.000
 RMSDP=6.34D-04 MaxDP=4.93D-02 DE=-6.28D-01 OVMax= 2.07D-01

 Cycle   3  Pass 1  IDiag  1:
 RMSU=  6.33D-04    CP:  9.87D-01  1.00D+00
 E= -4120.54537490726     Delta-E=       -0.766586476539 Rises=F Damp=F
 DIIS: error= 7.81D-03 at cycle   3 NSaved=   3.
 NSaved= 3 IEnMin= 3 EnMin= -4120.54537490726     IErMin= 2 ErrMin= 4.97D-03
 ErrMax= 7.81D-03  0.00D+00 EMaxC= 1.00D-01 BMatC= 4.41D-02 BMatP= 1.49D-01
 IDIUse=3 WtCom= 9.22D-01 WtEn= 7.81D-02
 Coeff-Com: -0.659D-01 0.323D+00 0.743D+00
 Coeff-En:   0.000D+00 0.000D+00 0.100D+01
 Coeff:     -0.607D-01 0.298D+00 0.763D+00
 Gap=     0.153 Goal=   None    Shift=    0.000
 RMSDP=1.67D-04 MaxDP=2.45D-02 DE=-7.67D-01 OVMax= 6.38D-02

 Cycle   4  Pass 1  IDiag  1:
 RMSU=  1.62D-04    CP:  9.87D-01  1.05D+00  9.75D-01
 E= -4120.57447207955     Delta-E=       -0.029097172288 Rises=F Damp=F
 DIIS: error= 4.37D-03 at cycle   4 NSaved=   4.
 NSaved= 4 IEnMin= 4 EnMin= -4120.57447207955     IErMin= 4 ErrMin= 4.37D-03
 ErrMax= 4.37D-03  0.00D+00 EMaxC= 1.00D-01 BMatC= 1.43D-02 BMatP= 4.41D-02
 IDIUse=3 WtCom= 9.56D-01 WtEn= 4.37D-02
 Coeff-Com: -0.297D-01 0.830D-01 0.418D+00 0.529D+00
 Coeff-En:   0.000D+00 0.000D+00 0.189D+00 0.811D+00
 Coeff:     -0.284D-01 0.794D-01 0.408D+00 0.541D+00
 Gap=     0.152 Goal=   None    Shift=    0.000
 RMSDP=7.80D-05 MaxDP=1.60D-02 DE=-2.91D-02 OVMax= 2.38D-02

 Cycle   5  Pass 1  IDiag  1:
 RMSU=  6.44D-05    CP:  9.87D-01  1.06D+00  1.01D+00  7.66D-01
 E= -4120.58593818339     Delta-E=       -0.011466103841 Rises=F Damp=F
 DIIS: error= 5.32D-04 at cycle   5 NSaved=   5.
 NSaved= 5 IEnMin= 5 EnMin= -4120.58593818339     IErMin= 5 ErrMin= 5.32D-04
 ErrMax= 5.32D-04  0.00D+00 EMaxC= 1.00D-01 BMatC= 7.33D-04 BMatP= 1.43D-02
 IDIUse=3 WtCom= 9.95D-01 WtEn= 5.32D-03
 Coeff-Com: -0.484D-02 0.501D-02 0.117D+00 0.245D+00 0.638D+00
 Coeff-En:   0.000D+00 0.000D+00 0.000D+00 0.000D+00 0.100D+01
 Coeff:     -0.482D-02 0.498D-02 0.116D+00 0.244D+00 0.640D+00
 Gap=     0.155 Goal=   None    Shift=    0.000
 RMSDP=2.60D-05 MaxDP=2.37D-03 DE=-1.15D-02 OVMax= 7.02D-03

 Cycle   6  Pass 1  IDiag  1:
 RMSU=  2.43D-05    CP:  9.86D-01  1.05D+00  1.01D+00  8.07D-01  9.27D-01
 E= -4120.58670422793     Delta-E=       -0.000766044543 Rises=F Damp=F
 DIIS: error= 1.73D-04 at cycle   6 NSaved=   6.
 NSaved= 6 IEnMin= 6 EnMin= -4120.58670422793     IErMin= 6 ErrMin= 1.73D-04
 ErrMax= 1.73D-04  0.00D+00 EMaxC= 1.00D-01 BMatC= 7.86D-05 BMatP= 7.33D-04
 IDIUse=3 WtCom= 9.98D-01 WtEn= 1.73D-03
 Coeff-Com:  0.211D-02-0.914D-02 0.332D-02 0.442D-01 0.261D+00 0.698D+00
 Coeff-En:   0.000D+00 0.000D+00 0.000D+00 0.000D+00 0.000D+00 0.100D+01
 Coeff:      0.211D-02-0.912D-02 0.332D-02 0.441D-01 0.261D+00 0.699D+00
 Gap=     0.155 Goal=   None    Shift=    0.000
 RMSDP=1.52D-05 MaxDP=2.76D-03 DE=-7.66D-04 OVMax= 3.06D-03

 Cycle   7  Pass 1  IDiag  1:
 RMSU=  1.00D-05    CP:  9.87D-01  1.05D+00  1.02D+00  8.12D-01  1.07D+00
                    CP:  1.09D+00
 E= -4120.58682082949     Delta-E=       -0.000116601563 Rises=F Damp=F
 DIIS: error= 6.06D-05 at cycle   7 NSaved=   7.
 NSaved= 7 IEnMin= 7 EnMin= -4120.58682082949     IErMin= 7 ErrMin= 6.06D-05
 ErrMax= 6.06D-05  0.00D+00 EMaxC= 1.00D-01 BMatC= 1.69D-05 BMatP= 7.86D-05
 IDIUse=1 WtCom= 1.00D+00 WtEn= 0.00D+00
 Coeff-Com:  0.223D-02-0.603D-02-0.206D-01-0.265D-01-0.119D-01 0.318D+00
 Coeff-Com:  0.745D+00
 Coeff:      0.223D-02-0.603D-02-0.206D-01-0.265D-01-0.119D-01 0.318D+00
 Coeff:      0.745D+00
 Gap=     0.155 Goal=   None    Shift=    0.000
 RMSDP=6.87D-06 MaxDP=6.29D-04 DE=-1.17D-04 OVMax= 2.10D-03

 Cycle   8  Pass 1  IDiag  1:
 RMSU=  3.67D-06    CP:  9.87D-01  1.05D+00  1.02D+00  8.28D-01  1.12D+00
                    CP:  1.27D+00  1.05D+00
 E= -4120.58685202349     Delta-E=       -0.000031194000 Rises=F Damp=F
 DIIS: error= 2.91D-05 at cycle   8 NSaved=   8.
 NSaved= 8 IEnMin= 8 EnMin= -4120.58685202349     IErMin= 8 ErrMin= 2.91D-05
 ErrMax= 2.91D-05  0.00D+00 EMaxC= 1.00D-01 BMatC= 3.25D-06 BMatP= 1.69D-05
 IDIUse=1 WtCom= 1.00D+00 WtEn= 0.00D+00
 Coeff-Com:  0.673D-03-0.120D-02-0.908D-02-0.186D-01-0.463D-01 0.184D-01
 Coeff-Com:  0.340D+00 0.716D+00
 Coeff:      0.673D-03-0.120D-02-0.908D-02-0.186D-01-0.463D-01 0.184D-01
 Coeff:      0.340D+00 0.716D+00
 Gap=     0.156 Goal=   None    Shift=    0.000
 RMSDP=3.07D-06 MaxDP=3.89D-04 DE=-3.12D-05 OVMax= 1.07D-03

 Cycle   9  Pass 1  IDiag  1:
 RMSU=  1.43D-06    CP:  9.87D-01  1.05D+00  1.02D+00  8.30D-01  1.14D+00
                    CP:  1.33D+00  1.18D+00  1.22D+00
 E= -4120.58685760094     Delta-E=       -0.000005577449 Rises=F Damp=F
 DIIS: error= 1.72D-05 at cycle   9 NSaved=   9.
 NSaved= 9 IEnMin= 9 EnMin= -4120.58685760094     IErMin= 9 ErrMin= 1.72D-05
 ErrMax= 1.72D-05  0.00D+00 EMaxC= 1.00D-01 BMatC= 4.40D-07 BMatP= 3.25D-06
 IDIUse=1 WtCom= 1.00D+00 WtEn= 0.00D+00
 Coeff-Com: -0.202D-04 0.297D-03-0.562D-03-0.353D-02-0.150D-01-0.413D-01
 Coeff-Com:  0.353D-01 0.294D+00 0.731D+00
 Coeff:     -0.202D-04 0.297D-03-0.562D-03-0.353D-02-0.150D-01-0.413D-01
 Coeff:      0.353D-01 0.294D+00 0.731D+00
 Gap=     0.156 Goal=   None    Shift=    0.000
 RMSDP=1.22D-06 MaxDP=1.24D-04 DE=-5.58D-06 OVMax= 5.28D-04

 Cycle  10  Pass 1  IDiag  1:
 RMSU=  6.06D-07    CP:  9.87D-01  1.05D+00  1.02D+00  8.31D-01  1.14D+00
                    CP:  1.35D+00  1.22D+00  1.41D+00  1.22D+00
 E= -4120.58685851631     Delta-E=       -0.000000915372 Rises=F Damp=F
 DIIS: error= 3.85D-06 at cycle  10 NSaved=  10.
 NSaved=10 IEnMin=10 EnMin= -4120.58685851631     IErMin=10 ErrMin= 3.85D-06
 ErrMax= 3.85D-06  0.00D+00 EMaxC= 1.00D-01 BMatC= 8.24D-08 BMatP= 4.40D-07
 IDIUse=1 WtCom= 1.00D+00 WtEn= 0.00D+00
 Coeff-Com: -0.115D-03 0.313D-03 0.147D-02 0.208D-02 0.307D-02-0.225D-01
 Coeff-Com: -0.485D-01-0.300D-01 0.279D+00 0.815D+00
 Coeff:     -0.115D-03 0.313D-03 0.147D-02 0.208D-02 0.307D-02-0.225D-01
 Coeff:     -0.485D-01-0.300D-01 0.279D+00 0.815D+00
 Gap=     0.156 Goal=   None    Shift=    0.000
 RMSDP=7.05D-07 MaxDP=8.33D-05 DE=-9.15D-07 OVMax= 3.57D-04

 Cycle  11  Pass 1  IDiag  1:
 RMSU=  2.77D-07    CP:  9.87D-01  1.05D+00  1.02D+00  8.32D-01  1.14D+00
                    CP:  1.36D+00  1.24D+00  1.52D+00  1.44D+00  1.26D+00
 E= -4120.58685874853     Delta-E=       -0.000000232214 Rises=F Damp=F
 DIIS: error= 2.62D-06 at cycle  11 NSaved=  11.
 NSaved=11 IEnMin=11 EnMin= -4120.58685874853     IErMin=11 ErrMin= 2.62D-06
 ErrMax= 2.62D-06  0.00D+00 EMaxC= 1.00D-01 BMatC= 1.63D-08 BMatP= 8.24D-08
 IDIUse=1 WtCom= 1.00D+00 WtEn= 0.00D+00
 Coeff-Com: -0.355D-04 0.572D-04 0.701D-03 0.148D-02 0.397D-02-0.299D-02
 Coeff-Com: -0.240D-01-0.626D-01-0.146D-01 0.339D+00 0.759D+00
 Coeff:     -0.355D-04 0.572D-04 0.701D-03 0.148D-02 0.397D-02-0.299D-02
 Coeff:     -0.240D-01-0.626D-01-0.146D-01 0.339D+00 0.759D+00
 Gap=     0.156 Goal=   None    Shift=    0.000
 RMSDP=3.14D-07 MaxDP=3.14D-05 DE=-2.32D-07 OVMax= 1.79D-04

 Cycle  12  Pass 1  IDiag  1:
 RMSU=  1.22D-07    CP:  9.87D-01  1.05D+00  1.02D+00  8.32D-01  1.14D+00
                    CP:  1.36D+00  1.24D+00  1.57D+00  1.54D+00  1.50D+00
                    CP:  1.22D+00
 E= -4120.58685879795     Delta-E=       -0.000000049426 Rises=F Damp=F
 DIIS: error= 1.38D-06 at cycle  12 NSaved=  12.
 NSaved=12 IEnMin=12 EnMin= -4120.58685879795     IErMin=12 ErrMin= 1.38D-06
 ErrMax= 1.38D-06  0.00D+00 EMaxC= 1.00D-01 BMatC= 3.05D-09 BMatP= 1.63D-08
 IDIUse=1 WtCom= 1.00D+00 WtEn= 0.00D+00
 Coeff-Com:  0.919D-05-0.389D-04-0.286D-04 0.127D-03 0.960D-03 0.297D-02
 Coeff-Com:  0.131D-02-0.150D-01-0.605D-01-0.338D-01 0.265D+00 0.840D+00
 Coeff:      0.919D-05-0.389D-04-0.286D-04 0.127D-03 0.960D-03 0.297D-02
 Coeff:      0.131D-02-0.150D-01-0.605D-01-0.338D-01 0.265D+00 0.840D+00
 Gap=     0.156 Goal=   None    Shift=    0.000
 RMSDP=1.53D-07 MaxDP=1.76D-05 DE=-4.94D-08 OVMax= 9.55D-05

 Cycle  13  Pass 1  IDiag  1:
 RMSU=  5.42D-08    CP:  9.87D-01  1.05D+00  1.02D+00  8.32D-01  1.14D+00
                    CP:  1.37D+00  1.24D+00  1.59D+00  1.59D+00  1.61D+00
                    CP:  1.48D+00  1.30D+00
 E= -4120.58685880954     Delta-E=       -0.000000011587 Rises=F Damp=F
 DIIS: error= 4.54D-07 at cycle  13 NSaved=  13.
 NSaved=13 IEnMin=13 EnMin= -4120.58685880954     IErMin=13 ErrMin= 4.54D-07
 ErrMax= 4.54D-07  0.00D+00 EMaxC= 1.00D-01 BMatC= 1.03D-09 BMatP= 3.05D-09
 IDIUse=1 WtCom= 1.00D+00 WtEn= 0.00D+00
 Coeff-Com:  0.131D-04-0.328D-04-0.205D-03-0.336D-03-0.478D-03 0.234D-02
 Coeff-Com:  0.675D-02 0.836D-02-0.309D-01-0.109D+00-0.707D-01 0.413D+00
 Coeff-Com:  0.780D+00
 Coeff:      0.131D-04-0.328D-04-0.205D-03-0.336D-03-0.478D-03 0.234D-02
 Coeff:      0.675D-02 0.836D-02-0.309D-01-0.109D+00-0.707D-01 0.413D+00
 Coeff:      0.780D+00
 Gap=     0.156 Goal=   None    Shift=    0.000
 RMSDP=8.90D-08 MaxDP=8.52D-06 DE=-1.16D-08 OVMax= 5.72D-05

 Cycle  14  Pass 1  IDiag  1:
 RMSU=  2.74D-08    CP:  9.87D-01  1.05D+00  1.02D+00  8.32D-01  1.14D+00
                    CP:  1.37D+00  1.24D+00  1.60D+00  1.61D+00  1.68D+00
                    CP:  1.62D+00  1.62D+00  1.23D+00
 E= -4120.58685881321     Delta-E=       -0.000000003667 Rises=F Damp=F
 DIIS: error= 2.26D-07 at cycle  14 NSaved=  14.
 NSaved=14 IEnMin=14 EnMin= -4120.58685881321     IErMin=14 ErrMin= 2.26D-07
 ErrMax= 2.26D-07  0.00D+00 EMaxC= 1.00D-01 BMatC= 1.79D-10 BMatP= 1.03D-09
 IDIUse=1 WtCom= 1.00D+00 WtEn= 0.00D+00
 Coeff-Com:  0.428D-05-0.795D-05-0.955D-04-0.192D-03-0.407D-03 0.512D-03
 Coeff-Com:  0.304D-02 0.756D-02-0.264D-02-0.436D-01-0.819D-01 0.216D-01
 Coeff-Com:  0.366D+00 0.730D+00
 Coeff:      0.428D-05-0.795D-05-0.955D-04-0.192D-03-0.407D-03 0.512D-03
 Coeff:      0.304D-02 0.756D-02-0.264D-02-0.436D-01-0.819D-01 0.216D-01
 Coeff:      0.366D+00 0.730D+00
 Gap=     0.156 Goal=   None    Shift=    0.000
 RMSDP=2.90D-08 MaxDP=2.94D-06 DE=-3.67D-09 OVMax= 1.86D-05

 Cycle  15  Pass 1  IDiag  1:
 RMSU=  9.59D-09    CP:  9.87D-01  1.05D+00  1.02D+00  8.32D-01  1.14D+00
                    CP:  1.37D+00  1.24D+00  1.60D+00  1.61D+00  1.70D+00
                    CP:  1.67D+00  1.73D+00  1.43D+00  1.06D+00
 E= -4120.58685881318     Delta-E=        0.000000000024 Rises=F Damp=F
 DIIS: error= 6.76D-08 at cycle  15 NSaved=  15.
 NSaved=15 IEnMin=14 EnMin= -4120.58685881321     IErMin=15 ErrMin= 6.76D-08
 ErrMax= 6.76D-08  0.00D+00 EMaxC= 1.00D-01 BMatC= 1.78D-11 BMatP= 1.79D-10
 IDIUse=1 WtCom= 1.00D+00 WtEn= 0.00D+00
 Coeff-Com: -0.632D-06 0.228D-05-0.114D-05-0.165D-04-0.647D-04-0.166D-03
 Coeff-Com:  0.861D-04 0.148D-02 0.300D-02-0.300D-03-0.174D-01-0.546D-01
 Coeff-Com:  0.265D-01 0.263D+00 0.779D+00
 Coeff:     -0.632D-06 0.228D-05-0.114D-05-0.165D-04-0.647D-04-0.166D-03
 Coeff:      0.861D-04 0.148D-02 0.300D-02-0.300D-03-0.174D-01-0.546D-01
 Coeff:      0.265D-01 0.263D+00 0.779D+00
 Gap=     0.156 Goal=   None    Shift=    0.000
 RMSDP=8.69D-09 MaxDP=7.14D-07 DE= 2.36D-11 OVMax= 5.05D-06

 Error on total polarization charges =  0.02902
 SCF Done:  E(RM062X) =  -4120.58685881     A.U. after   15 cycles
            NFock= 15  Conv=0.87D-08     -V/T= 2.0030
 KE= 4.108214093833D+03 PE=-2.180666731653D+04 EE= 7.533789640139D+03
 Leave Link  502 at Fri Nov  7 01:18:56 2025, MaxMem= 30870077440 cpu:           43276.1 elap:             690.9
 (Enter /public/software/gauss/g16/l601.exe)
 Copying SCF densities to generalized density rwf, IOpCl= 0 IROHF=0.

 **********************************************************************

            Population analysis using the SCF density.

 **********************************************************************

 Orbital symmetries:
       Occupied  (A) (A) (A) (A) (A) (A) (A) (A) (A) (A) (A) (A)
                 (A) (A) (A) (A) (A) (A) (A) (A) (A) (A) (A) (A)
                 (A) (A) (A) (A) (A) (A) (A) (A) (A) (A) (A) (A)
                 (A) (A) (A) (A) (A) (A) (A) (A) (A) (A) (A) (A)
                 (A) (A) (A) (A) (A) (A) (A) (A) (A) (A) (A) (A)
                 (A) (A) (A) (A) (A) (A) (A) (A) (A) (A) (A) (A)
                 (A) (A) (A) (A) (A) (A) (A) (A) (A) (A) (A) (A)
                 (A) (A) (A) (A) (A) (A) (A) (A) (A) (A) (A) (A)
                 (A) (A) (A) (A) (A) (A) (A) (A) (A) (A) (A) (A)
                 (A) (A) (A) (A) (A) (A) (A) (A) (A) (A) (A) (A)
                 (A) (A) (A) (A) (A) (A) (A) (A) (A) (A) (A) (A)
                 (A) (A) (A) (A) (A) (A) (A) (A) (A) (A) (A) (A)
                 (A) (A) (A) (A) (A) (A) (A) (A) (A) (A) (A) (A)
                 (A) (A) (A) (A) (A) (A) (A) (A) (A) (A) (A) (A)
                 (A) (A) (A) (A) (A) (A) (A) (A) (A) (A) (A) (A)
       Virtual   (A) (A) (A) (A) (A) (A) (A) (A) (A) (A) (A) (A)
                 (A) (A) (A) (A) (A) (A) (A) (A) (A) (A) (A) (A)
                 (A) (A) (A) (A) (A) (A) (A) (A) (A) (A) (A) (A)
                 (A) (A) (A) (A) (A) (A) (A) (A) (A) (A) (A) (A)
                 (A) (A) (A) (A) (A) (A) (A) (A) (A) (A) (A) (A)
                 (A) (A) (A) (A) (A) (A) (A) (A) (A) (A) (A) (A)
                 (A) (A) (A) (A) (A) (A) (A) (A) (A) (A) (A) (A)
                 (A) (A) (A) (A) (A) (A) (A) (A) (A) (A) (A) (A)
                 (A) (A) (A) (A) (A) (A) (A) (A) (A) (A) (A) (A)
                 (A) (A) (A) (A) (A) (A) (A) (A) (A) (A) (A) (A)
                 (A) (A) (A) (A) (A) (A) (A) (A) (A) (A) (A) (A)
                 (A) (A) (A) (A) (A) (A) (A) (A) (A) (A) (A) (A)
                 (A) (A) (A) (A) (A) (A) (A) (A) (A) (A) (A) (A)
                 (A) (A) (A) (A) (A) (A) (A) (A) (A) (A) (A) (A)
                 (A) (A) (A) (A) (A) (A) (A) (A) (A) (A) (A) (A)
                 (A) (A) (A) (A) (A) (A) (A) (A) (A) (A) (A) (A)
                 (A) (A) (A) (A) (A) (A) (A) (A) (A) (A) (A) (A)
                 (A) (A) (A) (A) (A) (A) (A) (A) (A) (A) (A) (A)
                 (A) (A) (A) (A) (A) (A) (A) (A) (A) (A) (A) (A)
                 (A) (A) (A) (A) (A) (A) (A) (A) (A) (A) (A) (A)
                 (A) (A) (A) (A) (A) (A) (A) (A) (A) (A) (A) (A)
                 (A) (A) (A) (A) (A) (A) (A) (A) (A) (A) (A) (A)
                 (A) (A) (A) (A) (A) (A) (A) (A) (A) (A) (A) (A)
                 (A) (A) (A) (A) (A) (A) (A) (A) (A) (A) (A) (A)
                 (A) (A) (A) (A) (A) (A) (A) (A) (A) (A) (A) (A)
                 (A) (A) (A) (A) (A) (A) (A) (A) (A) (A) (A) (A)
                 (A) (A) (A) (A) (A) (A) (A) (A) (A) (A) (A) (A)
                 (A) (A) (A) (A) (A) (A) (A) (A) (A) (A) (A) (A)
                 (A) (A) (A) (A) (A) (A) (A) (A) (A) (A) (A) (A)
                 (A) (A) (A) (A) (A) (A) (A) (A) (A) (A) (A) (A)
                 (A) (A) (A) (A) (A) (A) (A) (A) (A) (A) (A) (A)
                 (A) (A) (A) (A) (A) (A) (A) (A) (A) (A) (A) (A)
                 (A) (A) (A) (A) (A) (A) (A) (A) (A) (A) (A) (A)
                 (A) (A) (A) (A) (A) (A) (A) (A) (A) (A) (A) (A)
                 (A) (A) (A) (A) (A) (A) (A) (A) (A) (A) (A) (A)
                 (A) (A) (A) (A) (A) (A) (A) (A) (A) (A) (A) (A)
                 (A) (A) (A) (A) (A) (A) (A) (A) (A) (A) (A) (A)
                 (A) (A) (A) (A) (A) (A) (A) (A) (A) (A) (A) (A)
                 (A) (A) (A) (A) (A) (A) (A) (A) (A) (A) (A) (A)
                 (A) (A) (A) (A) (A) (A) (A) (A) (A) (A) (A) (A)
                 (A) (A) (A) (A) (A) (A) (A) (A) (A) (A) (A) (A)
                 (A) (A) (A) (A) (A) (A) (A) (A) (A) (A) (A) (A)
                 (A) (A) (A) (A) (A) (A) (A) (A) (A) (A) (A) (A)
                 (A) (A) (A) (A) (A) (A) (A) (A) (A) (A) (A) (A)
                 (A) (A) (A) (A) (A) (A) (A) (A) (A) (A) (A) (A)
                 (A) (A) (A) (A) (A) (A) (A) (A) (A) (A) (A) (A)
                 (A) (A) (A) (A) (A) (A) (A) (A) (A) (A) (A) (A)
                 (A) (A) (A) (A) (A) (A) (A) (A) (A) (A) (A) (A)
                 (A) (A) (A) (A) (A) (A) (A) (A) (A) (A) (A) (A)
                 (A) (A) (A) (A) (A) (A) (A) (A) (A) (A) (A) (A)
                 (A) (A) (A) (A) (A) (A) (A) (A) (A) (A) (A) (A)
                 (A) (A) (A) (A) (A) (A) (A) (A) (A) (A) (A) (A)
                 (A) (A) (A) (A) (A) (A) (A) (A) (A) (A) (A) (A)
                 (A) (A) (A) (A) (A) (A) (A) (A) (A) (A) (A) (A)
                 (A) (A) (A) (A) (A) (A) (A) (A) (A) (A) (A) (A)
                 (A) (A) (A) (A) (A) (A) (A) (A) (A) (A) (A) (A)
                 (A) (A) (A) (A) (A) (A) (A) (A) (A) (A) (A) (A)
                 (A) (A) (A) (A) (A) (A) (A) (A) (A) (A) (A) (A)
                 (A) (A) (A) (A) (A) (A) (A) (A) (A) (A) (A) (A)
                 (A) (A) (A) (A) (A) (A) (A) (A) (A) (A) (A) (A)
                 (A) (A) (A) (A) (A) (A) (A) (A) (A) (A) (A) (A)
                 (A) (A) (A) (A) (A) (A) (A) (A) (A) (A) (A) (A)
                 (A) (A) (A) (A) (A) (A) (A) (A) (A) (A) (A) (A)
                 (A) (A) (A) (A) (A) (A) (A) (A) (A) (A) (A) (A)
                 (A) (A) (A) (A) (A) (A) (A) (A) (A) (A) (A) (A)
                 (A) (A) (A) (A) (A) (A) (A) (A) (A) (A) (A) (A)
                 (A) (A) (A) (A) (A) (A) (A) (A) (A) (A) (A) (A)
                 (A) (A) (A) (A) (A) (A) (A) (A) (A) (A) (A) (A)
                 (A) (A) (A) (A) (A) (A) (A) (A) (A) (A) (A) (A)
                 (A) (A) (A) (A) (A) (A) (A) (A) (A) (A) (A) (A)
                 (A) (A) (A) (A) (A) (A) (A) (A) (A) (A) (A) (A)
                 (A) (A) (A) (A) (A) (A) (A) (A) (A) (A) (A) (A)
                 (A) (A) (A) (A) (A) (A) (A) (A) (A) (A) (A) (A)
                 (A) (A) (A) (A) (A) (A) (A) (A) (A) (A) (A) (A)
                 (A) (A) (A) (A) (A) (A) (A) (A) (A) (A) (A) (A)
                 (A) (A) (A) (A) (A) (A) (A) (A) (A) (A) (A) (A)
                 (A) (A) (A) (A) (A) (A) (A) (A) (A) (A) (A) (A)
                 (A) (A) (A) (A) (A) (A) (A) (A) (A) (A) (A) (A)
                 (A) (A) (A) (A) (A) (A) (A) (A) (A) (A) (A) (A)
                 (A) (A) (A) (A) (A) (A) (A) (A) (A) (A) (A) (A)
                 (A) (A) (A) (A) (A) (A) (A) (A) (A) (A) (A) (A)
                 (A) (A) (A) (A) (A) (A) (A) (A) (A) (A) (A) (A)
                 (A) (A) (A) (A) (A) (A) (A) (A) (A) (A) (A) (A)
                 (A) (A) (A) (A) (A) (A) (A) (A) (A) (A) (A) (A)
                 (A) (A) (A) (A) (A) (A) (A) (A) (A) (A) (A) (A)
                 (A) (A) (A) (A) (A) (A) (A) (A) (A) (A) (A) (A)
                 (A) (A) (A) (A) (A) (A) (A) (A) (A) (A) (A) (A)
                 (A) (A) (A) (A) (A) (A) (A) (A) (A) (A) (A) (A)
                 (A) (A) (A) (A) (A) (A) (A) (A) (A) (A) (A) (A)
                 (A) (A) (A) (A) (A) (A) (A) (A) (A) (A) (A) (A)
                 (A) (A) (A) (A) (A) (A) (A) (A) (A) (A) (A) (A)
                 (A) (A) (A) (A) (A) (A) (A) (A) (A) (A) (A) (A)
                 (A) (A) (A) (A) (A) (A) (A) (A) (A) (A) (A) (A)
                 (A) (A) (A) (A) (A) (A) (A) (A) (A) (A) (A) (A)
                 (A) (A) (A) (A) (A) (A) (A) (A) (A) (A) (A) (A)
                 (A) (A) (A) (A) (A) (A) (A) (A) (A) (A) (A) (A)
                 (A) (A) (A) (A) (A) (A) (A) (A) (A) (A) (A) (A)
                 (A) (A) (A) (A) (A) (A) (A) (A) (A) (A) (A) (A)
                 (A) (A) (A) (A) (A) (A) (A) (A) (A) (A) (A) (A)
                 (A) (A) (A) (A) (A) (A) (A) (A) (A) (A) (A) (A)
                 (A) (A) (A) (A) (A) (A) (A) (A) (A) (A) (A) (A)
                 (A) (A) (A) (A) (A) (A) (A) (A) (A) (A) (A) (A)
                 (A) (A) (A) (A) (A) (A) (A) (A) (A) (A) (A) (A)
                 (A) (A) (A) (A) (A) (A) (A) (A) (A) (A) (A) (A)
                 (A) (A) (A) (A) (A) (A) (A) (A) (A) (A) (A) (A)
                 (A) (A) (A) (A) (A) (A) (A) (A) (A) (A) (A) (A)
                 (A) (A) (A) (A) (A) (A) (A) (A) (A) (A) (A) (A)
                 (A) (A) (A) (A) (A) (A) (A) (A) (A) (A) (A) (A)
                 (A) (A) (A) (A) (A) (A) (A) (A) (A) (A) (A) (A)
                 (A) (A) (A) (A) (A) (A) (A) (A) (A) (A) (A) (A)
                 (A) (A) (A) (A) (A) (A) (A) (A) (A) (A) (A) (A)
                 (A) (A) (A) (A) (A) (A) (A) (A) (A) (A) (A) (A)
                 (A) (A) (A) (A) (A) (A) (A) (A) (A) (A) (A) (A)
                 (A) (A) (A) (A) (A) (A) (A) (A) (A) (A) (A) (A)
                 (A) (A) (A) (A) (A) (A) (A) (A) (A) (A) (A) (A)
                 (A) (A) (A) (A) (A) (A) (A) (A) (A) (A) (A) (A)
                 (A) (A) (A) (A) (A) (A) (A) (A) (A) (A) (A) (A)
                 (A) (A) (A) (A) (A) (A) (A) (A) (A) (A) (A) (A)
                 (A) (A) (A) (A) (A) (A) (A) (A) (A) (A) (A) (A)
                 (A) (A) (A) (A) (A) (A) (A) (A) (A) (A) (A) (A)
                 (A) (A) (A) (A) (A) (A) (A) (A) (A) (A) (A) (A)
                 (A) (A) (A) (A) (A) (A) (A) (A) (A) (A) (A) (A)
                 (A) (A) (A) (A) (A) (A) (A) (A) (A) (A) (A) (A)
                 (A) (A) (A) (A) (A) (A) (A) (A) (A) (A) (A) (A)
                 (A) (A) (A) (A) (A) (A) (A) (A) (A) (A) (A) (A)
                 (A) (A) (A) (A) (A) (A) (A) (A) (A) (A) (A) (A)
                 (A) (A) (A) (A) (A) (A) (A) (A) (A) (A) (A) (A)
                 (A) (A) (A) (A) (A) (A) (A) (A) (A)
 The electronic state is 1-A.
 Alpha  occ. eigenvalues --  -89.95112 -89.95076 -89.94549 -89.94215 -89.94044
 Alpha  occ. eigenvalues --  -89.93152 -25.21444 -25.21186 -19.68209 -19.68204
 Alpha  occ. eigenvalues --  -15.01674 -14.80454 -14.80033 -10.64568 -10.62458
 Alpha  occ. eigenvalues --  -10.62371 -10.62098 -10.61179 -10.60645 -10.60575
 Alpha  occ. eigenvalues --  -10.60439 -10.60094 -10.59988 -10.59883 -10.59429
 Alpha  occ. eigenvalues --  -10.59271 -10.58442 -10.58436 -10.58033 -10.58029
 Alpha  occ. eigenvalues --  -10.57899 -10.57804 -10.57722 -10.56923 -10.56557
 Alpha  occ. eigenvalues --  -10.56518 -10.56116 -10.55985 -10.55760 -10.55733
 Alpha  occ. eigenvalues --  -10.55542 -10.55491 -10.55442 -10.55322  -8.30777
 Alpha  occ. eigenvalues --   -8.30774  -8.30259  -8.29940  -8.29771  -8.28843
 Alpha  occ. eigenvalues --   -7.14510  -6.22741  -6.22681  -6.22525  -6.22501
 Alpha  occ. eigenvalues --   -6.22342  -6.22255  -6.22160  -6.21983  -6.21845
 Alpha  occ. eigenvalues --   -6.21828  -6.21677  -6.21666  -6.21526  -6.21498
 Alpha  occ. eigenvalues --   -6.21357  -6.20837  -6.20629  -6.20297  -1.37223
 Alpha  occ. eigenvalues --   -1.33297  -1.30113  -1.18752  -1.12539  -1.10418
 Alpha  occ. eigenvalues --   -1.01592  -1.01004  -1.00498  -0.98472  -0.98078
 Alpha  occ. eigenvalues --   -0.96444  -0.92489  -0.91281  -0.90715  -0.89532
 Alpha  occ. eigenvalues --   -0.89198  -0.88252  -0.86359  -0.85562  -0.84359
 Alpha  occ. eigenvalues --   -0.83946  -0.82967  -0.82686  -0.81615  -0.81206
 Alpha  occ. eigenvalues --   -0.78571  -0.77401  -0.73998  -0.73095  -0.71252
 Alpha  occ. eigenvalues --   -0.70591  -0.68932  -0.68354  -0.67939  -0.67462
 Alpha  occ. eigenvalues --   -0.66456  -0.66094  -0.64955  -0.64412  -0.63685
 Alpha  occ. eigenvalues --   -0.63638  -0.62544  -0.62210  -0.61851  -0.61465
 Alpha  occ. eigenvalues --   -0.60896  -0.60595  -0.60234  -0.59366  -0.58853
 Alpha  occ. eigenvalues --   -0.57822  -0.56053  -0.55957  -0.55107  -0.54660
 Alpha  occ. eigenvalues --   -0.54254  -0.54110  -0.53364  -0.53069  -0.52370
 Alpha  occ. eigenvalues --   -0.51976  -0.50948  -0.50056  -0.49230  -0.49046
 Alpha  occ. eigenvalues --   -0.48724  -0.48673  -0.48466  -0.48412  -0.48143
 Alpha  occ. eigenvalues --   -0.47939  -0.47692  -0.47514  -0.47239  -0.47165
 Alpha  occ. eigenvalues --   -0.46855  -0.46608  -0.46290  -0.45645  -0.45307
 Alpha  occ. eigenvalues --   -0.45050  -0.44557  -0.44180  -0.43985  -0.43576
 Alpha  occ. eigenvalues --   -0.42250  -0.41946  -0.41713  -0.41378  -0.41267
 Alpha  occ. eigenvalues --   -0.40511  -0.40223  -0.40059  -0.39965  -0.39232
 Alpha  occ. eigenvalues --   -0.35555  -0.34654  -0.34417  -0.34358  -0.34050
 Alpha  occ. eigenvalues --   -0.33302  -0.32702  -0.32560  -0.32157  -0.31766
 Alpha  occ. eigenvalues --   -0.31626  -0.31449  -0.27293  -0.26925  -0.26227
 Alpha virt. eigenvalues --   -0.10671  -0.07146  -0.04309  -0.03759  -0.01156
 Alpha virt. eigenvalues --    0.01263   0.01688   0.01896   0.02068   0.02734
 Alpha virt. eigenvalues --    0.03177   0.03977   0.04968   0.05364   0.06165
 Alpha virt. eigenvalues --    0.06522   0.07018   0.07572   0.07672   0.07985
 Alpha virt. eigenvalues --    0.08107   0.08166   0.08741   0.09014   0.09407
 Alpha virt. eigenvalues --    0.09746   0.09851   0.10099   0.10360   0.10393
 Alpha virt. eigenvalues --    0.10951   0.11140   0.11400   0.11641   0.11786
 Alpha virt. eigenvalues --    0.11897   0.12344   0.12664   0.12779   0.12921
 Alpha virt. eigenvalues --    0.13020   0.13293   0.13635   0.13811   0.14113
 Alpha virt. eigenvalues --    0.14716   0.15057   0.15126   0.15372   0.15769
 Alpha virt. eigenvalues --    0.16190   0.16292   0.16535   0.17038   0.17296
 Alpha virt. eigenvalues --    0.17815   0.18191   0.18403   0.18560   0.18993
 Alpha virt. eigenvalues --    0.19848   0.19931   0.20273   0.20831   0.20985
 Alpha virt. eigenvalues --    0.21137   0.21414   0.21711   0.22287   0.22579
 Alpha virt. eigenvalues --    0.22855   0.22998   0.23271   0.23293   0.23407
 Alpha virt. eigenvalues --    0.23699   0.23752   0.24086   0.24128   0.24230
 Alpha virt. eigenvalues --    0.24466   0.24786   0.24909   0.25117   0.25453
 Alpha virt. eigenvalues --    0.25567   0.25865   0.26115   0.26273   0.26410
 Alpha virt. eigenvalues --    0.26490   0.26635   0.26864   0.27032   0.27384
 Alpha virt. eigenvalues --    0.27538   0.27562   0.28298   0.28471   0.28591
 Alpha virt. eigenvalues --    0.28823   0.29188   0.29316   0.29505   0.29608
 Alpha virt. eigenvalues --    0.29907   0.30266   0.30476   0.30842   0.31243
 Alpha virt. eigenvalues --    0.31266   0.31456   0.31720   0.32244   0.32333
 Alpha virt. eigenvalues --    0.32540   0.33021   0.33665   0.33795   0.33990
 Alpha virt. eigenvalues --    0.34337   0.34606   0.34769   0.34914   0.35008
 Alpha virt. eigenvalues --    0.35149   0.35393   0.35454   0.35836   0.35949
 Alpha virt. eigenvalues --    0.36095   0.36298   0.36501   0.36737   0.36936
 Alpha virt. eigenvalues --    0.37159   0.37419   0.37738   0.37826   0.37953
 Alpha virt. eigenvalues --    0.38099   0.38156   0.38452   0.38940   0.38977
 Alpha virt. eigenvalues --    0.39123   0.39444   0.39760   0.40043   0.40193
 Alpha virt. eigenvalues --    0.40503   0.40604   0.40790   0.41094   0.41332
 Alpha virt. eigenvalues --    0.41641   0.41772   0.42136   0.42237   0.42341
 Alpha virt. eigenvalues --    0.42496   0.42676   0.42777   0.42965   0.43183
 Alpha virt. eigenvalues --    0.43347   0.43615   0.43883   0.44121   0.44194
 Alpha virt. eigenvalues --    0.44386   0.44894   0.44955   0.45024   0.45115
 Alpha virt. eigenvalues --    0.45337   0.45432   0.45570   0.46190   0.46350
 Alpha virt. eigenvalues --    0.46533   0.46971   0.47406   0.47613   0.47961
 Alpha virt. eigenvalues --    0.48151   0.48569   0.48772   0.48815   0.49041
 Alpha virt. eigenvalues --    0.49249   0.49395   0.49697   0.50269   0.50579
 Alpha virt. eigenvalues --    0.50911   0.51032   0.51191   0.51475   0.51758
 Alpha virt. eigenvalues --    0.52016   0.52287   0.52605   0.53041   0.53180
 Alpha virt. eigenvalues --    0.53343   0.53629   0.53779   0.54098   0.54489
 Alpha virt. eigenvalues --    0.54808   0.55171   0.55702   0.55750   0.55957
 Alpha virt. eigenvalues --    0.56169   0.56482   0.56738   0.56788   0.57216
 Alpha virt. eigenvalues --    0.57418   0.57623   0.57822   0.58095   0.58494
 Alpha virt. eigenvalues --    0.58738   0.58907   0.59456   0.59548   0.60023
 Alpha virt. eigenvalues --    0.60116   0.60459   0.60580   0.61098   0.61305
 Alpha virt. eigenvalues --    0.61799   0.61881   0.62228   0.62319   0.62425
 Alpha virt. eigenvalues --    0.62813   0.63132   0.63563   0.64061   0.64507
 Alpha virt. eigenvalues --    0.64814   0.65020   0.65183   0.65900   0.66049
 Alpha virt. eigenvalues --    0.66191   0.66237   0.66581   0.66992   0.67086
 Alpha virt. eigenvalues --    0.67444   0.67639   0.67699   0.68167   0.68317
 Alpha virt. eigenvalues --    0.68589   0.68812   0.68924   0.69010   0.69418
 Alpha virt. eigenvalues --    0.69784   0.70117   0.70346   0.70509   0.70574
 Alpha virt. eigenvalues --    0.70965   0.71088   0.71214   0.71745   0.71857
 Alpha virt. eigenvalues --    0.71890   0.72251   0.72561   0.72851   0.72956
 Alpha virt. eigenvalues --    0.73339   0.73699   0.73935   0.74309   0.74692
 Alpha virt. eigenvalues --    0.74888   0.74975   0.75265   0.75345   0.76210
 Alpha virt. eigenvalues --    0.76289   0.76730   0.77048   0.77264   0.77657
 Alpha virt. eigenvalues --    0.77891   0.78072   0.78379   0.78874   0.79364
 Alpha virt. eigenvalues --    0.79646   0.79959   0.80471   0.80904   0.81713
 Alpha virt. eigenvalues --    0.81946   0.82359   0.82552   0.82595   0.83164
 Alpha virt. eigenvalues --    0.83560   0.83707   0.83969   0.84577   0.84741
 Alpha virt. eigenvalues --    0.84932   0.85488   0.85803   0.86211   0.86361
 Alpha virt. eigenvalues --    0.86725   0.87320   0.87599   0.87921   0.88118
 Alpha virt. eigenvalues --    0.88734   0.89010   0.89312   0.89642   0.89899
 Alpha virt. eigenvalues --    0.90493   0.90810   0.91118   0.91219   0.91620
 Alpha virt. eigenvalues --    0.91670   0.91856   0.92075   0.92961   0.93204
 Alpha virt. eigenvalues --    0.93344   0.94083   0.94230   0.94495   0.94725
 Alpha virt. eigenvalues --    0.94947   0.95388   0.95787   0.96142   0.96919
 Alpha virt. eigenvalues --    0.97280   0.97549   0.97998   0.98187   0.98309
 Alpha virt. eigenvalues --    0.98669   0.98817   0.99107   0.99342   0.99521
 Alpha virt. eigenvalues --    0.99739   1.00080   1.00285   1.00312   1.00739
 Alpha virt. eigenvalues --    1.00796   1.01245   1.01494   1.01842   1.02222
 Alpha virt. eigenvalues --    1.02678   1.03023   1.03226   1.03468   1.03627
 Alpha virt. eigenvalues --    1.03947   1.04698   1.04726   1.05060   1.05442
 Alpha virt. eigenvalues --    1.05670   1.06131   1.06340   1.06548   1.06950
 Alpha virt. eigenvalues --    1.07272   1.07626   1.07942   1.08283   1.08505
 Alpha virt. eigenvalues --    1.08743   1.09003   1.09687   1.10163   1.10311
 Alpha virt. eigenvalues --    1.11071   1.11367   1.11875   1.12137   1.12452
 Alpha virt. eigenvalues --    1.12955   1.13359   1.13417   1.13948   1.14500
 Alpha virt. eigenvalues --    1.14504   1.14849   1.15107   1.15536   1.15796
 Alpha virt. eigenvalues --    1.16391   1.16608   1.17201   1.17468   1.18023
 Alpha virt. eigenvalues --    1.18180   1.18868   1.19581   1.20103   1.20629
 Alpha virt. eigenvalues --    1.20833   1.21255   1.21505   1.21733   1.22020
 Alpha virt. eigenvalues --    1.22225   1.22620   1.22852   1.23243   1.23454
 Alpha virt. eigenvalues --    1.23757   1.23919   1.24140   1.24280   1.24539
 Alpha virt. eigenvalues --    1.24946   1.25786   1.26035   1.26272   1.26861
 Alpha virt. eigenvalues --    1.27302   1.27474   1.28020   1.28332   1.29119
 Alpha virt. eigenvalues --    1.29218   1.29444   1.29755   1.30415   1.30706
 Alpha virt. eigenvalues --    1.30733   1.31014   1.31480   1.31610   1.31791
 Alpha virt. eigenvalues --    1.32354   1.32848   1.33410   1.34007   1.34328
 Alpha virt. eigenvalues --    1.34383   1.34679   1.35184   1.35462   1.35808
 Alpha virt. eigenvalues --    1.36070   1.36298   1.36923   1.37229   1.38096
 Alpha virt. eigenvalues --    1.39085   1.39332   1.39453   1.39932   1.40338
 Alpha virt. eigenvalues --    1.40492   1.41092   1.41530   1.41694   1.41764
 Alpha virt. eigenvalues --    1.42129   1.42329   1.43350   1.43560   1.43750
 Alpha virt. eigenvalues --    1.44126   1.44545   1.44824   1.45205   1.45353
 Alpha virt. eigenvalues --    1.45453   1.46039   1.46410   1.46936   1.47399
 Alpha virt. eigenvalues --    1.47649   1.47944   1.48279   1.48563   1.48737
 Alpha virt. eigenvalues --    1.49089   1.49625   1.49768   1.50310   1.50518
 Alpha virt. eigenvalues --    1.50592   1.51441   1.51605   1.51712   1.52099
 Alpha virt. eigenvalues --    1.52300   1.52434   1.52747   1.52883   1.53062
 Alpha virt. eigenvalues --    1.53546   1.53648   1.53898   1.54106   1.54133
 Alpha virt. eigenvalues --    1.54203   1.54611   1.54878   1.55037   1.55217
 Alpha virt. eigenvalues --    1.55392   1.55843   1.56153   1.56553   1.56760
 Alpha virt. eigenvalues --    1.56897   1.57133   1.57909   1.58215   1.58278
 Alpha virt. eigenvalues --    1.58521   1.58681   1.58954   1.59625   1.59756
 Alpha virt. eigenvalues --    1.59899   1.60286   1.60380   1.60683   1.61277
 Alpha virt. eigenvalues --    1.61464   1.61649   1.61839   1.62207   1.62486
 Alpha virt. eigenvalues --    1.62588   1.63067   1.63173   1.63470   1.63847
 Alpha virt. eigenvalues --    1.63921   1.64385   1.64718   1.65194   1.65588
 Alpha virt. eigenvalues --    1.66230   1.66673   1.66991   1.67762   1.68234
 Alpha virt. eigenvalues --    1.68737   1.69414   1.69509   1.70089   1.70753
 Alpha virt. eigenvalues --    1.70892   1.71048   1.71636   1.71733   1.72037
 Alpha virt. eigenvalues --    1.72181   1.72274   1.72844   1.72949   1.73817
 Alpha virt. eigenvalues --    1.74062   1.74459   1.74900   1.75475   1.75863
 Alpha virt. eigenvalues --    1.76461   1.77002   1.77114   1.77376   1.78077
 Alpha virt. eigenvalues --    1.78412   1.78589   1.78794   1.79139   1.79540
 Alpha virt. eigenvalues --    1.79816   1.80082   1.80157   1.80347   1.80642
 Alpha virt. eigenvalues --    1.80887   1.81311   1.81379   1.81893   1.82438
 Alpha virt. eigenvalues --    1.82648   1.82755   1.83139   1.83182   1.83392
 Alpha virt. eigenvalues --    1.83858   1.84252   1.84433   1.84486   1.84826
 Alpha virt. eigenvalues --    1.85169   1.85512   1.85798   1.86056   1.86455
 Alpha virt. eigenvalues --    1.87056   1.87187   1.87874   1.88464   1.88708
 Alpha virt. eigenvalues --    1.88979   1.89582   1.89982   1.90156   1.90553
 Alpha virt. eigenvalues --    1.91002   1.91332   1.91743   1.92184   1.92472
 Alpha virt. eigenvalues --    1.92976   1.93114   1.93646   1.94001   1.94447
 Alpha virt. eigenvalues --    1.95122   1.95456   1.95918   1.96160   1.97018
 Alpha virt. eigenvalues --    1.97363   1.97604   1.98137   1.98659   1.98834
 Alpha virt. eigenvalues --    1.99564   2.00017   2.00501   2.00699   2.01261
 Alpha virt. eigenvalues --    2.01763   2.01989   2.02528   2.02812   2.02965
 Alpha virt. eigenvalues --    2.03611   2.04038   2.04565   2.04822   2.04989
 Alpha virt. eigenvalues --    2.05537   2.06120   2.06356   2.06671   2.07085
 Alpha virt. eigenvalues --    2.07353   2.08308   2.08921   2.09189   2.09502
 Alpha virt. eigenvalues --    2.10196   2.10566   2.10898   2.11603   2.11671
 Alpha virt. eigenvalues --    2.11877   2.12295   2.12495   2.12868   2.13164
 Alpha virt. eigenvalues --    2.14066   2.14455   2.15027   2.15333   2.15685
 Alpha virt. eigenvalues --    2.15744   2.16082   2.16473   2.16930   2.17304
 Alpha virt. eigenvalues --    2.17350   2.17776   2.18356   2.18785   2.19054
 Alpha virt. eigenvalues --    2.19280   2.20025   2.20238   2.21158   2.21220
 Alpha virt. eigenvalues --    2.21676   2.22085   2.22906   2.23096   2.23910
 Alpha virt. eigenvalues --    2.25088   2.25162   2.25442   2.26161   2.26699
 Alpha virt. eigenvalues --    2.28144   2.28695   2.28927   2.29947   2.30110
 Alpha virt. eigenvalues --    2.30599   2.31211   2.31964   2.32280   2.32653
 Alpha virt. eigenvalues --    2.33017   2.33095   2.33591   2.33726   2.34304
 Alpha virt. eigenvalues --    2.35392   2.36075   2.37433   2.37806   2.38425
 Alpha virt. eigenvalues --    2.38976   2.39183   2.39422   2.39912   2.40234
 Alpha virt. eigenvalues --    2.41429   2.41525   2.42441   2.43378   2.44031
 Alpha virt. eigenvalues --    2.44216   2.46940   2.49073   2.49600   2.49674
 Alpha virt. eigenvalues --    2.51099   2.51547   2.52476   2.52760   2.53201
 Alpha virt. eigenvalues --    2.53812   2.53868   2.54492   2.54593   2.55199
 Alpha virt. eigenvalues --    2.55361   2.55683   2.56324   2.56723   2.58750
 Alpha virt. eigenvalues --    2.59331   2.59485   2.60393   2.60668   2.60951
 Alpha virt. eigenvalues --    2.61321   2.61709   2.61935   2.62376   2.62523
 Alpha virt. eigenvalues --    2.62997   2.63472   2.64226   2.64518   2.64732
 Alpha virt. eigenvalues --    2.64948   2.66040   2.66339   2.66835   2.67411
 Alpha virt. eigenvalues --    2.67991   2.68278   2.68926   2.69157   2.69585
 Alpha virt. eigenvalues --    2.69965   2.70137   2.70677   2.70847   2.71248
 Alpha virt. eigenvalues --    2.71509   2.71713   2.72024   2.72151   2.72475
 Alpha virt. eigenvalues --    2.73128   2.73498   2.74102   2.74396   2.74797
 Alpha virt. eigenvalues --    2.74893   2.75120   2.75271   2.75538   2.76606
 Alpha virt. eigenvalues --    2.77156   2.77835   2.78457   2.78921   2.79167
 Alpha virt. eigenvalues --    2.79554   2.79816   2.79876   2.80442   2.80795
 Alpha virt. eigenvalues --    2.81284   2.82107   2.82333   2.83410   2.83954
 Alpha virt. eigenvalues --    2.84778   2.85177   2.85259   2.85346   2.85677
 Alpha virt. eigenvalues --    2.85817   2.86020   2.86392   2.86745   2.86817
 Alpha virt. eigenvalues --    2.87313   2.87875   2.88456   2.88691   2.88840
 Alpha virt. eigenvalues --    2.89083   2.89241   2.89385   2.90407   2.90701
 Alpha virt. eigenvalues --    2.90806   2.91161   2.91658   2.91965   2.92079
 Alpha virt. eigenvalues --    2.92500   2.92974   2.93325   2.94221   2.94524
 Alpha virt. eigenvalues --    2.94836   2.95333   2.95514   2.95938   2.96081
 Alpha virt. eigenvalues --    2.96295   2.96709   2.97277   2.97477   2.98041
 Alpha virt. eigenvalues --    2.98376   2.98677   2.98719   2.99049   2.99193
 Alpha virt. eigenvalues --    2.99527   2.99784   3.00030   3.00115   3.00664
 Alpha virt. eigenvalues --    3.00769   3.01217   3.01370   3.01729   3.02044
 Alpha virt. eigenvalues --    3.02547   3.02758   3.03093   3.03613   3.03864
 Alpha virt. eigenvalues --    3.04205   3.04429   3.04743   3.05115   3.05187
 Alpha virt. eigenvalues --    3.05471   3.06017   3.06656   3.06795   3.07561
 Alpha virt. eigenvalues --    3.08162   3.08445   3.08754   3.09016   3.09153
 Alpha virt. eigenvalues --    3.09319   3.09401   3.09736   3.10169   3.10425
 Alpha virt. eigenvalues --    3.10662   3.10923   3.11024   3.11462   3.11884
 Alpha virt. eigenvalues --    3.12103   3.12218   3.12726   3.13371   3.13549
 Alpha virt. eigenvalues --    3.13731   3.13849   3.13931   3.14333   3.14368
 Alpha virt. eigenvalues --    3.14826   3.15113   3.15217   3.15770   3.16032
 Alpha virt. eigenvalues --    3.16288   3.16538   3.16641   3.17203   3.17371
 Alpha virt. eigenvalues --    3.17695   3.17734   3.18074   3.18261   3.18504
 Alpha virt. eigenvalues --    3.18531   3.19008   3.19065   3.19325   3.19510
 Alpha virt. eigenvalues --    3.20024   3.20335   3.20665   3.20955   3.21100
 Alpha virt. eigenvalues --    3.21345   3.21633   3.22006   3.22473   3.22624
 Alpha virt. eigenvalues --    3.23112   3.23492   3.23621   3.23795   3.24045
 Alpha virt. eigenvalues --    3.24525   3.24600   3.25017   3.25129   3.25577
 Alpha virt. eigenvalues --    3.26089   3.26244   3.26629   3.26916   3.27286
 Alpha virt. eigenvalues --    3.27757   3.28180   3.28529   3.28776   3.29412
 Alpha virt. eigenvalues --    3.29941   3.30262   3.30520   3.31299   3.31361
 Alpha virt. eigenvalues --    3.31630   3.31932   3.32160   3.32648   3.33145
 Alpha virt. eigenvalues --    3.33603   3.34194   3.34865   3.35056   3.35079
 Alpha virt. eigenvalues --    3.35524   3.35869   3.35931   3.36453   3.36949
 Alpha virt. eigenvalues --    3.37098   3.37177   3.37505   3.38115   3.38277
 Alpha virt. eigenvalues --    3.38893   3.39293   3.39383   3.40279   3.40650
 Alpha virt. eigenvalues --    3.40745   3.41179   3.41308   3.42033   3.42352
 Alpha virt. eigenvalues --    3.43080   3.43544   3.43661   3.44062   3.44176
 Alpha virt. eigenvalues --    3.44531   3.44604   3.45232   3.45510   3.45799
 Alpha virt. eigenvalues --    3.46002   3.46300   3.46876   3.47214   3.47709
 Alpha virt. eigenvalues --    3.47849   3.48427   3.48712   3.49341   3.49610
 Alpha virt. eigenvalues --    3.50074   3.50748   3.51231   3.51507   3.51870
 Alpha virt. eigenvalues --    3.51973   3.52258   3.52897   3.53130   3.53852
 Alpha virt. eigenvalues --    3.54270   3.54685   3.54767   3.55315   3.55790
 Alpha virt. eigenvalues --    3.56527   3.56780   3.57024   3.58013   3.58355
 Alpha virt. eigenvalues --    3.58468   3.59139   3.59296   3.59636   3.60391
 Alpha virt. eigenvalues --    3.60797   3.61228   3.61835   3.62043   3.62893
 Alpha virt. eigenvalues --    3.63217   3.63606   3.63771   3.64040   3.64165
 Alpha virt. eigenvalues --    3.64472   3.64643   3.64834   3.65100   3.65454
 Alpha virt. eigenvalues --    3.65648   3.66322   3.66545   3.67198   3.67416
 Alpha virt. eigenvalues --    3.67475   3.69017   3.69894   3.69957   3.70622
 Alpha virt. eigenvalues --    3.70908   3.71359   3.71770   3.72033   3.72093
 Alpha virt. eigenvalues --    3.72306   3.72484   3.72736   3.73613   3.74169
 Alpha virt. eigenvalues --    3.74847   3.74971   3.75396   3.75588   3.75932
 Alpha virt. eigenvalues --    3.76572   3.76832   3.77306   3.77903   3.78070
 Alpha virt. eigenvalues --    3.78198   3.78368   3.79184   3.80026   3.80343
 Alpha virt. eigenvalues --    3.80507   3.80885   3.81283   3.81304   3.81496
 Alpha virt. eigenvalues --    3.81606   3.82629   3.82859   3.83049   3.83455
 Alpha virt. eigenvalues --    3.84046   3.84636   3.85234   3.85919   3.86691
 Alpha virt. eigenvalues --    3.86879   3.87129   3.87452   3.88076   3.88423
 Alpha virt. eigenvalues --    3.88677   3.89449   3.89935   3.90526   3.91049
 Alpha virt. eigenvalues --    3.91554   3.92089   3.92508   3.92943   3.93650
 Alpha virt. eigenvalues --    3.94018   3.94193   3.94816   3.95231   3.95941
 Alpha virt. eigenvalues --    3.96480   3.97110   3.97588   3.98221   3.98549
 Alpha virt. eigenvalues --    3.99070   3.99383   3.99911   4.00609   4.01197
 Alpha virt. eigenvalues --    4.02164   4.02850   4.03569   4.03939   4.04435
 Alpha virt. eigenvalues --    4.04800   4.04818   4.05007   4.06354   4.06610
 Alpha virt. eigenvalues --    4.07084   4.07264   4.08312   4.08707   4.08907
 Alpha virt. eigenvalues --    4.09480   4.09904   4.10058   4.10635   4.10700
 Alpha virt. eigenvalues --    4.10840   4.11188   4.11373   4.11796   4.12307
 Alpha virt. eigenvalues --    4.12380   4.13678   4.13880   4.14905   4.15220
 Alpha virt. eigenvalues --    4.15940   4.16525   4.16866   4.17362   4.17656
 Alpha virt. eigenvalues --    4.18079   4.18513   4.19424   4.19727   4.19787
 Alpha virt. eigenvalues --    4.19999   4.21114   4.21245   4.21947   4.22637
 Alpha virt. eigenvalues --    4.22734   4.23468   4.23565   4.24116   4.24662
 Alpha virt. eigenvalues --    4.25733   4.25815   4.26294   4.27253   4.27362
 Alpha virt. eigenvalues --    4.27645   4.27714   4.27753   4.28163   4.29039
 Alpha virt. eigenvalues --    4.29482   4.30087   4.30341   4.32208   4.32527
 Alpha virt. eigenvalues --    4.33061   4.33948   4.34798   4.34866   4.35332
 Alpha virt. eigenvalues --    4.35864   4.36290   4.37402   4.37678   4.37822
 Alpha virt. eigenvalues --    4.38521   4.39927   4.41508   4.41864   4.42390
 Alpha virt. eigenvalues --    4.42884   4.43701   4.44185   4.44366   4.44712
 Alpha virt. eigenvalues --    4.45155   4.46041   4.46724   4.47534   4.48044
 Alpha virt. eigenvalues --    4.48483   4.49396   4.50696   4.51454   4.51822
 Alpha virt. eigenvalues --    4.53369   4.54013   4.54276   4.54773   4.56822
 Alpha virt. eigenvalues --    4.57044   4.57152   4.57329   4.59974   4.60127
 Alpha virt. eigenvalues --    4.60581   4.61207   4.62899   4.63224   4.63587
 Alpha virt. eigenvalues --    4.63858   4.64429   4.64724   4.64895   4.65059
 Alpha virt. eigenvalues --    4.66160   4.66423   4.66814   4.67393   4.69328
 Alpha virt. eigenvalues --    4.69877   4.70284   4.71657   4.72554   4.72866
 Alpha virt. eigenvalues --    4.73879   4.74211   4.74470   4.77294   4.77909
 Alpha virt. eigenvalues --    4.79879   4.80034   4.81085   4.81440   4.81503
 Alpha virt. eigenvalues --    4.81565   4.81656   4.82161   4.83765   4.86170
 Alpha virt. eigenvalues --    4.87993   4.88094   4.89410   4.90389   4.91039
 Alpha virt. eigenvalues --    4.92520   4.93288   4.93977   4.94419   4.94865
 Alpha virt. eigenvalues --    4.95281   4.95913   4.97402   4.97834   4.98221
 Alpha virt. eigenvalues --    4.98370   4.98608   4.99044   4.99398   5.01822
 Alpha virt. eigenvalues --    5.02291   5.03088   5.03626   5.05330   5.05942
 Alpha virt. eigenvalues --    5.06591   5.06972   5.07914   5.08048   5.09649
 Alpha virt. eigenvalues --    5.09821   5.10030   5.10973   5.11250   5.11833
 Alpha virt. eigenvalues --    5.12437   5.12958   5.13081   5.13608   5.13872
 Alpha virt. eigenvalues --    5.13886   5.14505   5.14879   5.15094   5.15226
 Alpha virt. eigenvalues --    5.16135   5.16216   5.16491   5.17078   5.17800
 Alpha virt. eigenvalues --    5.19091   5.23870   5.24119   5.24268   5.24476
 Alpha virt. eigenvalues --    5.24740   5.25374   5.28238   5.28913   5.30012
 Alpha virt. eigenvalues --    5.31999   5.32285   5.32506   5.32817   5.36072
 Alpha virt. eigenvalues --    5.37862   5.38889   5.38982   5.39857   5.40597
 Alpha virt. eigenvalues --    5.40740   5.41559   5.42013   5.44497   5.46114
 Alpha virt. eigenvalues --    5.46596   5.49015   5.50391   5.51197   5.53634
 Alpha virt. eigenvalues --    5.53884   5.54252   5.56902   5.58061   5.58747
 Alpha virt. eigenvalues --    5.58784   5.59348   5.59627   5.60018   5.62567
 Alpha virt. eigenvalues --    5.64479   5.67692   5.67873   5.67948   5.69597
 Alpha virt. eigenvalues --    5.69910   5.71424   5.76011   5.76681   5.79242
 Alpha virt. eigenvalues --    5.80678   5.85192   5.89222   5.91545   5.92259
 Alpha virt. eigenvalues --    5.92661   5.95687   5.96879   5.97553   5.97807
 Alpha virt. eigenvalues --    6.11025   6.11133   6.12514   6.18815   6.22141
 Alpha virt. eigenvalues --    6.25274   6.28116   6.33341   6.36031   6.40330
 Alpha virt. eigenvalues --    6.42259   6.43059   6.75637   6.80696   6.82513
 Alpha virt. eigenvalues --    6.82640   6.82853   6.82950   6.83069   6.84121
 Alpha virt. eigenvalues --    6.84656   6.84772   6.84923   6.85024   6.87433
 Alpha virt. eigenvalues --    6.90123   6.91150   6.91228   6.93112   6.93206
 Alpha virt. eigenvalues --    6.93996   6.94295   6.94587   6.95810   6.96212
 Alpha virt. eigenvalues --    6.96473   6.96735   6.98207   6.98739   6.99058
 Alpha virt. eigenvalues --    7.00095   7.01264   7.01574   7.03375   7.05245
 Alpha virt. eigenvalues --    7.06670   7.06688   7.08198   7.10164   7.15998
 Alpha virt. eigenvalues --    7.20634   7.21684   7.23370   7.26663   7.33132
 Alpha virt. eigenvalues --    7.33305   7.34315   7.37424   7.37759   7.42812
 Alpha virt. eigenvalues --    7.42973   7.44585   7.45711   7.45803   7.50287
 Alpha virt. eigenvalues --    8.43554   8.44846   8.53130   8.56015   8.82730
 Alpha virt. eigenvalues --    8.84508   8.89965   8.90389   8.94645   8.94713
 Alpha virt. eigenvalues --    8.95761   8.97122   8.97498   8.98010   9.03464
 Alpha virt. eigenvalues --    9.11693   9.37835   9.41752   9.47632   9.48225
 Alpha virt. eigenvalues --    9.48705   9.49077   9.50691   9.50747   9.57124
 Alpha virt. eigenvalues --    9.57576   9.65495   9.66497  15.84505  20.19632
 Alpha virt. eigenvalues --   20.21465  20.35341  20.46320  20.46852  20.50229
 Alpha virt. eigenvalues --   22.35110  22.38373  22.62649  22.62744  22.80322
 Alpha virt. eigenvalues --   22.81732  22.86226  22.89871  22.91785  22.99482
 Alpha virt. eigenvalues --   22.99620  23.10077  23.15816  23.19979  23.20137
 Alpha virt. eigenvalues --   23.21630  23.22973  23.25127  23.27382  23.31920
 Alpha virt. eigenvalues --   23.33052  23.33454  23.39718  23.46035  23.46186
 Alpha virt. eigenvalues --   23.50629  23.60985  23.61093  23.65602  23.77074
 Alpha virt. eigenvalues --   24.10791  32.58993  33.03928  33.16812  44.20623
 Alpha virt. eigenvalues --   44.24310  57.28003  57.53277
          Condensed to atoms (all electrons):
 Mulliken charges:
               1
     1  O   -0.363992
     2  N    0.491495
     3  O   -0.364000
     4  C   -0.024102
     5  C   -0.080569
     6  C   -0.195948
     7  C   -0.056094
     8  C    0.199637
     9  C    0.045616
    10  C   -0.132157
    11  C   -0.180627
    12  C    0.023203
    13  S    0.058587
    14  C   -0.170651
    15  C   -0.078573
    16  C   -0.185059
    17  C    0.049865
    18  C   -0.008240
    19  C   -0.165744
    20  C   -0.183147
    21  C   -0.204595
    22  S    0.064912
    23  S    0.099218
    24  N   -0.085054
    25  B    0.340255
    26  F   -0.329484
    27  F   -0.352527
    28  N   -0.100840
    29  C   -0.042921
    30  S   -0.013704
    31  C   -0.148617
    32  C   -0.090668
    33  C   -0.199606
    34  C    0.031713
    35  C    0.002654
    36  C   -0.167369
    37  C   -0.185231
    38  C   -0.206235
    39  S    0.060716
    40  S    0.076024
    41  C   -0.159798
    42  C   -0.162980
    43  C    0.071085
    44  C   -0.198711
    45  C   -0.077429
    46  H    0.198834
    47  H    0.199274
    48  H    0.211338
    49  H    0.188045
    50  H    0.174017
    51  H    0.169098
    52  H    0.167808
    53  H    0.166577
    54  H    0.181356
    55  H    0.180995
    56  H    0.166540
    57  H    0.166668
    58  H    0.165671
    59  H    0.180562
    60  H    0.177651
    61  H    0.206415
    62  H    0.199994
    63  H    0.198851
 Sum of Mulliken charges =  -0.00000
 Mulliken charges with hydrogens summed into heavy atoms:
               1
     1  O   -0.363992
     2  N    0.491495
     3  O   -0.364000
     4  C   -0.024102
     5  C    0.118265
     6  C    0.003325
     7  C   -0.056094
     8  C    0.199637
     9  C    0.045616
    10  C    0.079181
    11  C    0.007418
    12  C    0.023203
    13  S    0.058587
    14  C   -0.170651
    15  C    0.095444
    16  C   -0.015961
    17  C    0.049865
    18  C   -0.008240
    19  C    0.002064
    20  C   -0.016570
    21  C   -0.023240
    22  S    0.064912
    23  S    0.099218
    24  N   -0.085054
    25  B    0.340255
    26  F   -0.329484
    27  F   -0.352527
    28  N   -0.100840
    29  C   -0.042921
    30  S   -0.013704
    31  C   -0.148617
    32  C    0.090327
    33  C   -0.033066
    34  C    0.031713
    35  C    0.002654
    36  C   -0.000701
    37  C   -0.019560
    38  C   -0.025673
    39  S    0.060716
    40  S    0.076024
    41  C    0.017853
    42  C    0.043434
    43  C    0.071085
    44  C    0.001283
    45  C    0.121422
 Electronic spatial extent (au):  <R**2>=          52149.6589
 Charge=              0.0000 electrons
 Dipole moment (field-independent basis, Debye):
    X=             -4.7017    Y=              0.0359    Z=              6.9028  Tot=              8.3520
 Quadrupole moment (field-independent basis, Debye-Ang):
   XX=           -210.9271   YY=           -356.1081   ZZ=           -288.8532
   XY=             10.8259   XZ=              1.6046   YZ=            -27.0059
 Traceless Quadrupole moment (field-independent basis, Debye-Ang):
   XX=             74.3690   YY=            -70.8120   ZZ=             -3.5571
   XY=             10.8259   XZ=              1.6046   YZ=            -27.0059
 Octapole moment (field-independent basis, Debye-Ang**2):
  XXX=           -296.6624  YYY=           -623.8171  ZZZ=             62.8749  XYY=             41.4311
  XXY=           -177.7564  XXZ=            187.4711  XZZ=            -21.9298  YZZ=            -29.9539
  YYZ=            -59.9356  XYZ=            -32.7105
 Hexadecapole moment (field-independent basis, Debye-Ang**3):
 XXXX=         -37249.1818 YYYY=         -27812.6778 ZZZZ=          -2884.1223 XXXY=            296.0230
 XXXZ=            810.1267 YYYX=            344.3750 YYYZ=           -874.6427 ZZZX=            113.2754
 ZZZY=           -101.3181 XXYY=         -11361.6222 XXZZ=          -7696.1816 YYZZ=          -3762.0027
 XXYZ=           -549.9757 YYXZ=            101.0122 ZZXY=             11.0789
 N-N= 6.044076723748D+03 E-N=-2.180666733136D+04  KE= 4.108214093833D+03
 No NMR shielding tensors so no spin-rotation constants.
 Leave Link  601 at Fri Nov  7 01:18:58 2025, MaxMem= 30870077440 cpu:             146.5 elap:               2.7
 (Enter /public/software/gauss/g16/l9999.exe)
 1\1\GINC-CU015\SP\RM062X\def2TZVPP\C31H18B1F2N3O2S6\BAIDING\07-Nov-202
 5\0\\#p M062X/DEF2TZVPP scrf=(solvent=water) em=GD3\\Energy calculatio
 n for M100034835\\0,1\O,0,-1.301967,8.634304,0.307597\N,0,-0.315397,8.
 025976,0.733576\O,0,0.588523,8.569232,1.375871\C,0,-0.212712,6.592955,
 0.464605\C,0,0.894063,5.895129,0.946912\C,0,0.988155,4.53381,0.685337\
 C,0,-0.017726,3.874925,-0.044284\C,0,0.077684,2.41895,-0.313422\C,0,-0
 .966638,1.5752,0.060888\C,0,-2.158142,1.835504,0.796023\C,0,-2.804811,
 0.632049,0.985493\C,0,-2.000332,-0.362521,0.368621\S,0,-2.256235,-2.10
 9154,0.330054\C,0,-3.955744,-2.233628,0.778555\C,0,-4.463188,-2.589298
 ,2.005331\C,0,-5.875755,-2.714265,2.011691\C,0,-6.460254,-2.452853,0.7
 87827\C,0,-7.876536,-2.462448,0.470801\C,0,-8.930094,-2.310061,1.34728
 5\C,0,-10.204615,-2.38745,0.7182\C,0,-10.12323,-2.59209,-0.632308\S,0,
 -8.475242,-2.709907,-1.162638\S,0,-5.238992,-2.047762,-0.403374\N,0,-0
 .907165,0.198549,-0.188826\B,0,0.213745,-0.520502,-1.006395\F,0,-0.279
 296,-0.924438,-2.244244\F,0,0.650265,-1.628918,-0.273821\N,0,1.35391,0
 .524797,-1.196271\C,0,2.555699,0.334982,-1.809965\S,0,3.116088,-1.2541
 85,-2.384609\C,0,4.154881,-1.775348,-1.045572\C,0,3.779791,-2.389636,0
 .124957\C,0,4.878322,-2.726364,0.957146\C,0,6.1049,-2.372123,0.429637\
 C,0,7.411561,-2.571057,1.03048\C,0,7.702669,-2.735881,2.368085\C,0,9.0
 89774,-2.928148,2.626465\C,0,9.854272,-2.904429,1.492215\S,0,8.883551,
 -2.659294,0.073882\S,0,5.896876,-1.589338,-1.125583\C,0,3.224491,1.562
 209,-1.948706\C,0,2.396662,2.539168,-1.405667\C,0,1.234421,1.887707,-0
 .934409\C,0,-1.123142,4.60716,-0.513026\C,0,-1.224916,5.970633,-0.2643
 94\H,0,1.658373,6.407099,1.51695\H,0,1.83354,3.974049,1.068056\H,0,-2.
 470467,2.803275,1.160408\H,0,-3.725581,0.450945,1.5189\H,0,-3.83762,-2
 .765798,2.872593\H,0,-6.450279,-3.002202,2.883996\H,0,-8.787691,-2.129
 081,2.406393\H,0,-11.14466,-2.285234,1.24796\H,0,-10.925806,-2.683509,
 -1.35188\H,0,2.743856,-2.58922,0.368886\H,0,4.778118,-3.238591,1.90698
 5\H,0,6.942898,-2.69967,3.140304\H,0,9.503024,-3.068682,3.618681\H,0,1
 0.925973,-3.015883,1.395817\H,0,4.196338,1.695745,-2.40168\H,0,2.58811
 9,3.600933,-1.355824\H,0,-1.893368,4.110256,-1.091317\H,0,-2.06787,6.5
 42288,-0.630286\\Version=ES64L-G16RevA.03\State=1-A\HF=-4120.5868588\R
 MSD=8.692e-09\Dipole=-1.8497744,0.0141338,2.715762\Quadrupole=55.29155
 56,-52.6469744,-2.6445813,8.0487799,1.1929869,-20.0782597\PG=C01 [X(C3
 1H18B1F2N3O2S6)]\\@


 THE PROBLEM WITH THE LADDER OF SUCCESS IS YOU CAN'T
 CLIMB IT WHILE YOU'RE TWIDDLING YOUR THUMBS.
 Job cpu time:       0 days 12 hours 21 minutes 45.2 seconds.
 Elapsed time:       0 days  0 hours 11 minutes 50.9 seconds.
 File lengths (MBytes):  RWF=   2028 Int=      0 D2E=      0 Chk=    171 Scr=      1
 Normal termination of Gaussian 16 at Fri Nov  7 01:18:59 2025.
