 Entering Gaussian System, Link 0=g16
 Input=M100033921_reduced_sp.gjf
 Output=M100033921_reduced_sp.log
 Initial command:
 /public/software/gauss/g16/l1.exe "/public/home/baiding/1101_v2_sp/tmp_M100033921_reduced_sp_1568608/Gau-4164866.inp" -scrdir="/public/home/baiding/1101_v2_sp/tmp_M100033921_reduced_sp_1568608/"
 Entering Link 1 = /public/software/gauss/g16/l1.exe PID=   4164867.
  
 Copyright (c) 1988,1990,1992,1993,1995,1998,2003,2009,2016,
            Gaussian, Inc.  All Rights Reserved.
  
 This is part of the Gaussian(R) 16 program.  It is based on
 the Gaussian(R) 09 system (copyright 2009, Gaussian, Inc.),
 the Gaussian(R) 03 system (copyright 2003, Gaussian, Inc.),
 the Gaussian(R) 98 system (copyright 1998, Gaussian, Inc.),
 the Gaussian(R) 94 system (copyright 1995, Gaussian, Inc.),
 the Gaussian 92(TM) system (copyright 1992, Gaussian, Inc.),
 the Gaussian 90(TM) system (copyright 1990, Gaussian, Inc.),
 the Gaussian 88(TM) system (copyright 1988, Gaussian, Inc.),
 the Gaussian 86(TM) system (copyright 1986, Carnegie Mellon
 University), and the Gaussian 82(TM) system (copyright 1983,
 Carnegie Mellon University). Gaussian is a federally registered
 trademark of Gaussian, Inc.
  
 This software contains proprietary and confidential information,
 including trade secrets, belonging to Gaussian, Inc.
  
 This software is provided under written license and may be
 used, copied, transmitted, or stored only in accord with that
 written license.
  
 The following legend is applicable only to US Government
 contracts under FAR:
  
                    RESTRICTED RIGHTS LEGEND
  
 Use, reproduction and disclosure by the US Government is
 subject to restrictions as set forth in subparagraphs (a)
 and (c) of the Commercial Computer Software - Restricted
 Rights clause in FAR 52.227-19.
  
 Gaussian, Inc.
 340 Quinnipiac St., Bldg. 40, Wallingford CT 06492
  
  
 ---------------------------------------------------------------
 Warning -- This program may not be used in any manner that
 competes with the business of Gaussian, Inc. or will provide
 assistance to any competitor of Gaussian, Inc.  The licensee
 of this program is prohibited from giving any competitor of
 Gaussian, Inc. access to this program.  By using this program,
 the user acknowledges that Gaussian, Inc. is engaged in the
 business of creating and licensing software in the field of
 computational chemistry and represents and warrants to the
 licensee that it is not a competitor of Gaussian, Inc. and that
 it will not use this program in any manner prohibited above.
 ---------------------------------------------------------------
  

 Cite this work as:
 Gaussian 16, Revision A.03,
 M. J. Frisch, G. W. Trucks, H. B. Schlegel, G. E. Scuseria, 
 M. A. Robb, J. R. Cheeseman, G. Scalmani, V. Barone, 
 G. A. Petersson, H. Nakatsuji, X. Li, M. Caricato, A. V. Marenich, 
 J. Bloino, B. G. Janesko, R. Gomperts, B. Mennucci, H. P. Hratchian, 
 J. V. Ortiz, A. F. Izmaylov, J. L. Sonnenberg, D. Williams-Young, 
 F. Ding, F. Lipparini, F. Egidi, J. Goings, B. Peng, A. Petrone, 
 T. Henderson, D. Ranasinghe, V. G. Zakrzewski, J. Gao, N. Rega, 
 G. Zheng, W. Liang, M. Hada, M. Ehara, K. Toyota, R. Fukuda, 
 J. Hasegawa, M. Ishida, T. Nakajima, Y. Honda, O. Kitao, H. Nakai, 
 T. Vreven, K. Throssell, J. A. Montgomery, Jr., J. E. Peralta, 
 F. Ogliaro, M. J. Bearpark, J. J. Heyd, E. N. Brothers, K. N. Kudin, 
 V. N. Staroverov, T. A. Keith, R. Kobayashi, J. Normand, 
 K. Raghavachari, A. P. Rendell, J. C. Burant, S. S. Iyengar, 
 J. Tomasi, M. Cossi, J. M. Millam, M. Klene, C. Adamo, R. Cammi, 
 J. W. Ochterski, R. L. Martin, K. Morokuma, O. Farkas, 
 J. B. Foresman, and D. J. Fox, Gaussian, Inc., Wallingford CT, 2016.
 
 ******************************************
 Gaussian 16:  ES64L-G16RevA.03 25-Dec-2016
                 6-Nov-2025 
 ******************************************
 %nprocshared=64
 Will use up to   64 processors via shared memory.
 %mem=230GB
 %chk=M100033921_reduced_sp.chk
 ----------------------------------------------
 #p M062X/DEF2TZVPP scrf=(solvent=water) em=GD3
 ----------------------------------------------
 1/38=1,172=1/1;
 2/12=2,17=6,18=5,40=1/2;
 3/5=44,7=202,11=2,25=1,30=1,70=2201,72=1,74=-55,124=31/1,2,3;
 4//1;
 5/5=2,38=5,53=1/2;
 6/7=2,8=2,9=2,10=2,28=1/1;
 99/5=1,9=1/99;
 Leave Link    1 at Thu Nov  6 17:05:57 2025, MaxMem= 30870077440 cpu:              17.4 elap:               0.3
 (Enter /public/software/gauss/g16/l101.exe)
 -----------------------------------------
 Energy calculation for M100033921_reduced
 -----------------------------------------
 Symbolic Z-matrix:
 Charge = -1 Multiplicity = 2
 C                     6.10093  -5.10986  -0.6674 
 O                     5.5823   -4.21116   0.31736 
 C                     4.26682  -3.83582   0.2155 
 C                     3.39461  -4.26768  -0.7896 
 C                     2.0741   -3.81404  -0.79295 
 C                     1.59057  -2.93245   0.18643 
 C                     0.17069  -2.53047   0.16573 
 C                    -0.94926  -3.36719   0.15373 
 Cl                   -0.92042  -5.11511   0.25857 
 C                    -2.11558  -2.59691   0.11027 
 C                    -1.69469  -1.2546    0.06673 
 C                    -2.46186  -0.05178   0.00433 
 C                    -3.93131  -0.1049   -0.03785 
 C                    -4.60785  -0.9819   -0.91704 
 C                    -5.99293  -1.03555  -0.96432 
 C                    -6.75693  -0.20607  -0.12201 
 C                    -8.18169  -0.25728  -0.16486 
 N                    -9.34816  -0.29928  -0.20016 
 C                    -6.10559   0.67409   0.76242 
 C                    -4.71974   0.71972   0.79772 
 C                    -1.78089   1.20316  -0.0223 
 C                    -2.29363   2.51213  -0.09126 
 C                    -1.184     3.36331  -0.08271 
 Cl                   -1.27182   5.1088   -0.19406 
 C                    -0.00851   2.60826  -0.03846 
 C                     1.37876   3.11066   0.00115 
 C                     1.75782   4.02196   1.00699 
 C                     3.03722   4.56055   1.04924 
 C                     3.98273   4.20154   0.07778 
 O                     5.21889   4.78306   0.20149 
 C                     6.21721   4.44752  -0.76655 
 C                     3.62842   3.30027  -0.93284 
 C                     2.33766   2.76949  -0.9649 
 N                    -0.39014   1.27555  -0.01315 
 B                     0.56209   0.05727   0.09053 
 F                     1.42772  -0.00792  -1.01824 
 F                     1.33187   0.18278   1.26416 
 N                    -0.30355  -1.22784   0.12434 
 C                     2.48549  -2.5175    1.19253 
 C                     3.80226  -2.95773   1.20619 
 H                     6.04769  -4.6756   -1.67173 
 H                     7.14541  -5.27431  -0.39948 
 H                     5.56746  -6.06659  -0.65465 
 H                     3.72761  -4.94187  -1.56919 
 H                     1.4102   -4.14681  -1.58446 
 H                    -3.13043  -2.96113   0.12528 
 H                    -4.03487  -1.60661  -1.59243 
 H                    -6.49089  -1.70482  -1.65789 
 H                    -6.69046   1.30463   1.42366 
 H                    -4.23409   1.3825    1.5045 
 H                    -3.32992   2.80315  -0.1569 
 H                     1.0407    4.30126   1.77221 
 H                     3.32414   5.25608   1.83165 
 H                     5.9082    4.73943  -1.7762 
 H                     7.10725   5.01112  -0.48374 
 H                     6.44516   3.37614  -0.74992 
 H                     4.33896   3.01306  -1.6984 
 H                     2.0764    2.07423  -1.75231 
 H                     2.1442   -1.83967   1.96418 
 H                     4.48711  -2.63674   1.98495 
 
 ITRead=  0  0  0  0  0  0  0  0  0  0  0  0  0  0  0  0  0  0  0  0
 ITRead=  0  0  0  0  0  0  0  0  0  0  0  0  0  0  0  0  0  0  0  0
 ITRead=  0  0  0  0  0  0  0  0  0  0  0  0  0  0  0  0  0  0  0  0
 MicOpt= -1 -1 -1 -1 -1 -1 -1 -1 -1 -1 -1 -1 -1 -1 -1 -1 -1 -1 -1 -1
 MicOpt= -1 -1 -1 -1 -1 -1 -1 -1 -1 -1 -1 -1 -1 -1 -1 -1 -1 -1 -1 -1
 MicOpt= -1 -1 -1 -1 -1 -1 -1 -1 -1 -1 -1 -1 -1 -1 -1 -1 -1 -1 -1 -1
 NAtoms=     60 NQM=       60 NQMF=       0 NMMI=      0 NMMIF=      0
                NMic=       0 NMicF=      0.
                    Isotopes and Nuclear Properties:
 (Nuclear quadrupole moments (NQMom) in fm**2, nuclear magnetic moments (NMagM)
  in nuclear magnetons)

  Atom         1           2           3           4           5           6           7           8           9          10
 IAtWgt=          12          16          12          12          12          12          12          12          35          12
 AtmWgt=  12.0000000  15.9949146  12.0000000  12.0000000  12.0000000  12.0000000  12.0000000  12.0000000  34.9688527  12.0000000
 NucSpn=           0           0           0           0           0           0           0           0           3           0
 AtZEff=  -0.0000000  -0.0000000  -0.0000000  -0.0000000  -0.0000000  -0.0000000  -0.0000000  -0.0000000  -0.0000000  -0.0000000
 NQMom=    0.0000000   0.0000000   0.0000000   0.0000000   0.0000000   0.0000000   0.0000000   0.0000000  -8.1650000   0.0000000
 NMagM=    0.0000000   0.0000000   0.0000000   0.0000000   0.0000000   0.0000000   0.0000000   0.0000000   0.8218740   0.0000000
 AtZNuc=   6.0000000   8.0000000   6.0000000   6.0000000   6.0000000   6.0000000   6.0000000   6.0000000  17.0000000   6.0000000

  Atom        11          12          13          14          15          16          17          18          19          20
 IAtWgt=          12          12          12          12          12          12          12          14          12          12
 AtmWgt=  12.0000000  12.0000000  12.0000000  12.0000000  12.0000000  12.0000000  12.0000000  14.0030740  12.0000000  12.0000000
 NucSpn=           0           0           0           0           0           0           0           2           0           0
 AtZEff=  -0.0000000  -0.0000000  -0.0000000  -0.0000000  -0.0000000  -0.0000000  -0.0000000  -0.0000000  -0.0000000  -0.0000000
 NQMom=    0.0000000   0.0000000   0.0000000   0.0000000   0.0000000   0.0000000   0.0000000   2.0440000   0.0000000   0.0000000
 NMagM=    0.0000000   0.0000000   0.0000000   0.0000000   0.0000000   0.0000000   0.0000000   0.4037610   0.0000000   0.0000000
 AtZNuc=   6.0000000   6.0000000   6.0000000   6.0000000   6.0000000   6.0000000   6.0000000   7.0000000   6.0000000   6.0000000

  Atom        21          22          23          24          25          26          27          28          29          30
 IAtWgt=          12          12          12          35          12          12          12          12          12          16
 AtmWgt=  12.0000000  12.0000000  12.0000000  34.9688527  12.0000000  12.0000000  12.0000000  12.0000000  12.0000000  15.9949146
 NucSpn=           0           0           0           3           0           0           0           0           0           0
 AtZEff=  -0.0000000  -0.0000000  -0.0000000  -0.0000000  -0.0000000  -0.0000000  -0.0000000  -0.0000000  -0.0000000  -0.0000000
 NQMom=    0.0000000   0.0000000   0.0000000  -8.1650000   0.0000000   0.0000000   0.0000000   0.0000000   0.0000000   0.0000000
 NMagM=    0.0000000   0.0000000   0.0000000   0.8218740   0.0000000   0.0000000   0.0000000   0.0000000   0.0000000   0.0000000
 AtZNuc=   6.0000000   6.0000000   6.0000000  17.0000000   6.0000000   6.0000000   6.0000000   6.0000000   6.0000000   8.0000000

  Atom        31          32          33          34          35          36          37          38          39          40
 IAtWgt=          12          12          12          14          11          19          19          14          12          12
 AtmWgt=  12.0000000  12.0000000  12.0000000  14.0030740  11.0093053  18.9984033  18.9984033  14.0030740  12.0000000  12.0000000
 NucSpn=           0           0           0           2           3           1           1           2           0           0
 AtZEff=  -0.0000000  -0.0000000  -0.0000000  -0.0000000  -0.0000000  -0.0000000  -0.0000000  -0.0000000  -0.0000000  -0.0000000
 NQMom=    0.0000000   0.0000000   0.0000000   2.0440000   4.0590000   0.0000000   0.0000000   2.0440000   0.0000000   0.0000000
 NMagM=    0.0000000   0.0000000   0.0000000   0.4037610   2.6886370   2.6288670   2.6288670   0.4037610   0.0000000   0.0000000
 AtZNuc=   6.0000000   6.0000000   6.0000000   7.0000000   5.0000000   9.0000000   9.0000000   7.0000000   6.0000000   6.0000000

  Atom        41          42          43          44          45          46          47          48          49          50
 IAtWgt=           1           1           1           1           1           1           1           1           1           1
 AtmWgt=   1.0078250   1.0078250   1.0078250   1.0078250   1.0078250   1.0078250   1.0078250   1.0078250   1.0078250   1.0078250
 NucSpn=           1           1           1           1           1           1           1           1           1           1
 AtZEff=  -0.0000000  -0.0000000  -0.0000000  -0.0000000  -0.0000000  -0.0000000  -0.0000000  -0.0000000  -0.0000000  -0.0000000
 NQMom=    0.0000000   0.0000000   0.0000000   0.0000000   0.0000000   0.0000000   0.0000000   0.0000000   0.0000000   0.0000000
 NMagM=    2.7928460   2.7928460   2.7928460   2.7928460   2.7928460   2.7928460   2.7928460   2.7928460   2.7928460   2.7928460
 AtZNuc=   1.0000000   1.0000000   1.0000000   1.0000000   1.0000000   1.0000000   1.0000000   1.0000000   1.0000000   1.0000000

  Atom        51          52          53          54          55          56          57          58          59          60
 IAtWgt=           1           1           1           1           1           1           1           1           1           1
 AtmWgt=   1.0078250   1.0078250   1.0078250   1.0078250   1.0078250   1.0078250   1.0078250   1.0078250   1.0078250   1.0078250
 NucSpn=           1           1           1           1           1           1           1           1           1           1
 AtZEff=  -0.0000000  -0.0000000  -0.0000000  -0.0000000  -0.0000000  -0.0000000  -0.0000000  -0.0000000  -0.0000000  -0.0000000
 NQMom=    0.0000000   0.0000000   0.0000000   0.0000000   0.0000000   0.0000000   0.0000000   0.0000000   0.0000000   0.0000000
 NMagM=    2.7928460   2.7928460   2.7928460   2.7928460   2.7928460   2.7928460   2.7928460   2.7928460   2.7928460   2.7928460
 AtZNuc=   1.0000000   1.0000000   1.0000000   1.0000000   1.0000000   1.0000000   1.0000000   1.0000000   1.0000000   1.0000000
 Leave Link  101 at Thu Nov  6 17:05:57 2025, MaxMem= 30870077440 cpu:               4.3 elap:               0.1
 (Enter /public/software/gauss/g16/l202.exe)
 Stoichiometry    C30H20BCl2F2N3O2(1-,2)
 Framework group  C1[X(C30H20BCl2F2N3O2)]
 Deg. of freedom   174
 Full point group                 C1      NOp   1
 Largest Abelian subgroup         C1      NOp   1
 Largest concise Abelian subgroup C1      NOp   1
                         Standard orientation:                         
 ---------------------------------------------------------------------
 Center     Atomic      Atomic             Coordinates (Angstroms)
 Number     Number       Type             X           Y           Z
 ---------------------------------------------------------------------
      1          6           0        6.100934   -5.109855   -0.667401
      2          8           0        5.582303   -4.211164    0.317362
      3          6           0        4.266815   -3.835816    0.215502
      4          6           0        3.394609   -4.267677   -0.789596
      5          6           0        2.074096   -3.814038   -0.792945
      6          6           0        1.590567   -2.932450    0.186429
      7          6           0        0.170689   -2.530469    0.165730
      8          6           0       -0.949256   -3.367193    0.153734
      9         17           0       -0.920418   -5.115111    0.258567
     10          6           0       -2.115576   -2.596910    0.110273
     11          6           0       -1.694687   -1.254596    0.066729
     12          6           0       -2.461856   -0.051780    0.004333
     13          6           0       -3.931305   -0.104896   -0.037846
     14          6           0       -4.607850   -0.981901   -0.917043
     15          6           0       -5.992933   -1.035554   -0.964315
     16          6           0       -6.756930   -0.206065   -0.122006
     17          6           0       -8.181690   -0.257275   -0.164859
     18          7           0       -9.348164   -0.299282   -0.200157
     19          6           0       -6.105594    0.674091    0.762420
     20          6           0       -4.719743    0.719716    0.797716
     21          6           0       -1.780885    1.203156   -0.022301
     22          6           0       -2.293634    2.512128   -0.091256
     23          6           0       -1.183997    3.363310   -0.082706
     24         17           0       -1.271822    5.108804   -0.194059
     25          6           0       -0.008506    2.608255   -0.038460
     26          6           0        1.378758    3.110656    0.001154
     27          6           0        1.757819    4.021958    1.006991
     28          6           0        3.037219    4.560545    1.049237
     29          6           0        3.982725    4.201544    0.077778
     30          8           0        5.218894    4.783055    0.201491
     31          6           0        6.217206    4.447519   -0.766548
     32          6           0        3.628420    3.300270   -0.932835
     33          6           0        2.337661    2.769487   -0.964903
     34          7           0       -0.390140    1.275552   -0.013154
     35          5           0        0.562090    0.057269    0.090525
     36          9           0        1.427720   -0.007921   -1.018238
     37          9           0        1.331866    0.182779    1.264159
     38          7           0       -0.303552   -1.227842    0.124338
     39          6           0        2.485487   -2.517497    1.192532
     40          6           0        3.802260   -2.957733    1.206187
     41          1           0        6.047692   -4.675601   -1.671728
     42          1           0        7.145405   -5.274305   -0.399484
     43          1           0        5.567464   -6.066589   -0.654646
     44          1           0        3.727613   -4.941873   -1.569189
     45          1           0        1.410201   -4.146812   -1.584463
     46          1           0       -3.130427   -2.961132    0.125279
     47          1           0       -4.034871   -1.606607   -1.592430
     48          1           0       -6.490888   -1.704817   -1.657893
     49          1           0       -6.690463    1.304633    1.423657
     50          1           0       -4.234087    1.382499    1.504500
     51          1           0       -3.329919    2.803151   -0.156900
     52          1           0        1.040704    4.301261    1.772214
     53          1           0        3.324142    5.256077    1.831645
     54          1           0        5.908202    4.739431   -1.776203
     55          1           0        7.107246    5.011115   -0.483739
     56          1           0        6.445157    3.376139   -0.749918
     57          1           0        4.338957    3.013061   -1.698401
     58          1           0        2.076402    2.074229   -1.752308
     59          1           0        2.144198   -1.839674    1.964180
     60          1           0        4.487108   -2.636743    1.984948
 ---------------------------------------------------------------------
 Rotational constants (GHZ):           0.0826578           0.0598525           0.0359318
 Leave Link  202 at Thu Nov  6 17:05:57 2025, MaxMem= 30870077440 cpu:               0.2 elap:               0.0
 (Enter /public/software/gauss/g16/l301.exe)
 Standard basis: def2TZVPP (5D, 7F)
 Ernie: Thresh=  0.10000D-02 Tol=  0.10000D-05 Strict=F.
 There are  1764 symmetry adapted cartesian basis functions of A   symmetry.
 There are  1542 symmetry adapted basis functions of A   symmetry.
  1542 basis functions,  2416 primitive gaussians,  1764 cartesian basis functions
   148 alpha electrons      147 beta electrons
       nuclear repulsion energy      4623.0027254530 Hartrees.
 IExCor= 4336 DFT=T Ex+Corr=M062X ExCW=0 ScaHFX=  0.540000
 ScaDFX=  1.000000  1.000000  1.000000  1.000000 ScalE2=  1.000000  1.000000
 IRadAn=      5 IRanWt=     -1 IRanGd=            0 ICorTp=0 IEmpDi=131
 NAtoms=   60 NActive=   60 NUniq=   60 SFac= 1.00D+00 NAtFMM=   60 NAOKFM=T Big=T
 Integral buffers will be    131072 words long.
 Raffenetti 2 integral format.
 Two-electron integral symmetry is turned on.
 R6Disp:  Grimme-D3 Dispersion energy=       -0.0051396340 Hartrees.
 Nuclear repulsion after empirical dispersion term =     4622.9975858190 Hartrees.
 ------------------------------------------------------------------------------
 Polarizable Continuum Model (PCM)
 =================================
 Model                : PCM.
 Atomic radii         : UFF (Universal Force Field).
 Polarization charges : Total charges.
 Charge compensation  : None.
 Solution method      : On-the-fly selection.
 Cavity type          : Scaled VdW (van der Waals Surface) (Alpha=1.100).
 Cavity algorithm     : GePol (No added spheres)
                        Default sphere list used, NSphG=   60.
                        Lebedev-Laikov grids with approx.  5.0 points / Ang**2.
                        Smoothing algorithm: York/Karplus (Gamma=1.0000).
                        Polarization charges: spherical gaussians, with
                                              point-specific exponents (IZeta= 3).
                        Self-potential: point-specific (ISelfS= 7).
                        Self-field    : sphere-specific E.n sum rule (ISelfD= 2).
 Solvent              : Water, Eps=  78.355300 Eps(inf)=   1.777849
 ------------------------------------------------------------------------------
 GePol: Number of generator spheres                  =      60
 GePol: Total number of spheres                      =      60
 GePol: Number of exposed spheres                    =      60 (100.00%)
 GePol: Number of points                             =    4622
 GePol: Average weight of points                     =       0.13
 GePol: Minimum weight of points                     =   0.23D-10
 GePol: Maximum weight of points                     =    0.21616
 GePol: Number of points with low weight             =     299
 GePol: Fraction of low-weight points (<1% of avg)   =       6.47%
 GePol: Cavity surface area                          =    610.637 Ang**2
 GePol: Cavity volume                                =    701.911 Ang**3
 Leave Link  301 at Thu Nov  6 17:05:57 2025, MaxMem= 30870077440 cpu:               4.2 elap:               0.1
 (Enter /public/software/gauss/g16/l302.exe)
 NPDir=0 NMtPBC=     1 NCelOv=     1 NCel=       1 NClECP=     1 NCelD=      1
         NCelK=      1 NCelE2=     1 NClLst=     1 CellRange=     0.0.
 One-electron integrals computed using PRISM.
 One-electron integral symmetry used in STVInt
   1 Symmetry operations used in ECPInt.
 ECPInt:  NShTT=  160461 NPrTT=  475791 LenC2=  111404 LenP2D=  221875.
 LDataN:  DoStor=T MaxTD1= 6 Len=  172
 NBasis=  1542 RedAO= T EigKep=  6.80D-06  NBF=  1542
 NBsUse=  1542 1.00D-06 EigRej= -1.00D+00 NBFU=  1542
 Precomputing XC quadrature grid using
 IXCGrd= 4 IRadAn=           5 IRanWt=          -1 IRanGd=           0 AccXCQ= 0.00D+00.
 Generated NRdTot=       0 NPtTot=           0 NUsed=           0 NTot=          32
 NSgBfM=  1613  1613  1613  1613  1613 MxSgAt=    60 MxSgA2=    60.
 Leave Link  302 at Thu Nov  6 17:06:03 2025, MaxMem= 30870077440 cpu:             377.2 elap:               5.9
 (Enter /public/software/gauss/g16/l303.exe)
 DipDrv:  MaxL=1.
 Leave Link  303 at Thu Nov  6 17:06:03 2025, MaxMem= 30870077440 cpu:              20.4 elap:               0.4
 (Enter /public/software/gauss/g16/l401.exe)
 ExpMin= 6.06D-02 ExpMax= 6.95D+04 ExpMxC= 2.37D+03 IAcc=3 IRadAn=         5 AccDes= 0.00D+00
 Harris functional with IExCor= 1009 and IRadAn=       5 diagonalized for initial guess.
 HarFok:  IExCor= 1009 AccDes= 0.00D+00 IRadAn=         5 IDoV= 1 UseB2=F ITyADJ=14
 ICtDFT=  3500011 ScaDFX=  1.000000  1.000000  1.000000  1.000000
 FoFCou: FMM=F IPFlag=           0 FMFlag=      100000 FMFlg1=        2001
         NFxFlg=           0 DoJE=T BraDBF=F KetDBF=T FulRan=T
         wScrn=  0.000000 ICntrl=       500 IOpCl=  0 I1Cent=   200000004 NGrid=           0
         NMat0=    1 NMatS0=      1 NMatT0=    0 NMatD0=    1 NMtDS0=    0 NMtDT0=    0
 Petite list used in FoFCou.
 Harris En= -2613.80883224047    
 JPrj=0 DoOrth=F DoCkMO=F.
 Initial guess <Sx>= 0.0000 <Sy>= 0.0000 <Sz>= 0.5000 <S**2>= 0.7500 S= 0.5000
 Leave Link  401 at Thu Nov  6 17:06:11 2025, MaxMem= 30870077440 cpu:             508.4 elap:               8.0
 (Enter /public/software/gauss/g16/l502.exe)
 Integral symmetry usage will be decided dynamically.
 UHF open shell SCF:
 Using DIIS extrapolation, IDIIS=  1040.
 NGot= 30870077440 LenX= 30863726428 LenY= 30860612968
 Requested convergence on RMS density matrix=1.00D-08 within 128 cycles.
 Requested convergence on MAX density matrix=1.00D-06.
 Requested convergence on             energy=1.00D-06.
 No special actions if energy rises.
 Fock matrices will be formed incrementally for  20 cycles.

 Cycle   1  Pass 1  IDiag  1:
 FoFJK:  IHMeth= 1 ICntrl=       0 DoSepK=F KAlg= 0 I1Cent=           0 FoldK=F
 IRaf= 670000000 NMat=       1 IRICut=       1 DoRegI=T DoRafI=F ISym2E= 0 IDoP0=0 IntGTp=1.
 FoFCou: FMM=T IPFlag=           0 FMFlag=      100000 FMFlg1=        2001
         NFxFlg=           0 DoJE=F BraDBF=F KetDBF=F FulRan=T
         wScrn=  0.000000 ICntrl=         0 IOpCl=  1 I1Cent=           0 NGrid=           0
         NMat0=    1 NMatS0=      1 NMatT0=    0 NMatD0=    1 NMtDS0=    0 NMtDT0=    0
 Symmetry not used in FoFCou.
 FMM levels:  10  Number of levels for PrismC:   9
 Inv3:  Mode=1 IEnd=    64088652.
 Iteration    1 A*A^-1 deviation from unit magnitude is 1.42D-14 for    431.
 Iteration    1 A*A^-1 deviation from orthogonality  is 6.55D-15 for   4608   1823.
 Iteration    1 A^-1*A deviation from unit magnitude is 1.40D-14 for    431.
 Iteration    1 A^-1*A deviation from orthogonality  is 5.98D-15 for   4145    636.
 E= -2614.32796747926    
 DIIS: error= 1.55D-02 at cycle   1 NSaved=   1.
 NSaved= 1 IEnMin= 1 EnMin= -2614.32796747926     IErMin= 1 ErrMin= 1.55D-02
 ErrMax= 1.55D-02  0.00D+00 EMaxC= 1.00D-01 BMatC= 4.67D+00 BMatP= 4.67D+00
 IDIUse=3 WtCom= 8.45D-01 WtEn= 1.55D-01
 Coeff-Com:  0.100D+01
 Coeff-En:   0.100D+01
 Coeff:      0.100D+01
 Gap=     0.161 Goal=   None    Shift=    0.000
 Gap=     0.254 Goal=   None    Shift=    0.000
 GapD=    0.161 DampG=1.000 DampE=0.500 DampFc=0.5000 IDamp=-1.
 Damping current iteration by 5.00D-01
 RMSDP=1.93D-03 MaxDP=1.77D-01              OVMax= 2.14D-01

 Cycle   2  Pass 1  IDiag  1:
 RMSU=  9.64D-04    CP:  9.91D-01
 E= -2614.77816947119     Delta-E=       -0.450201991935 Rises=F Damp=T
 DIIS: error= 4.73D-03 at cycle   2 NSaved=   2.
 NSaved= 2 IEnMin= 2 EnMin= -2614.77816947119     IErMin= 2 ErrMin= 4.73D-03
 ErrMax= 4.73D-03  0.00D+00 EMaxC= 1.00D-01 BMatC= 4.68D-01 BMatP= 4.67D+00
 IDIUse=3 WtCom= 9.53D-01 WtEn= 4.73D-02
 Coeff-Com: -0.198D+00 0.120D+01
 Coeff-En:   0.000D+00 0.100D+01
 Coeff:     -0.188D+00 0.119D+01
 Gap=     0.160 Goal=   None    Shift=    0.000
 Gap=     0.166 Goal=   None    Shift=    0.000
 RMSDP=7.20D-04 MaxDP=4.97D-02 DE=-4.50D-01 OVMax= 1.00D-01

 Cycle   3  Pass 1  IDiag  1:
 RMSU=  7.18D-04    CP:  9.85D-01  1.05D+00
 E= -2615.16770710154     Delta-E=       -0.389537630354 Rises=F Damp=F
 DIIS: error= 5.14D-03 at cycle   3 NSaved=   3.
 NSaved= 3 IEnMin= 3 EnMin= -2615.16770710154     IErMin= 2 ErrMin= 4.73D-03
 ErrMax= 5.14D-03  0.00D+00 EMaxC= 1.00D-01 BMatC= 1.37D-01 BMatP= 4.68D-01
 IDIUse=3 WtCom= 9.49D-01 WtEn= 5.14D-02
 Coeff-Com: -0.140D+00 0.453D+00 0.687D+00
 Coeff-En:   0.000D+00 0.000D+00 0.100D+01
 Coeff:     -0.133D+00 0.429D+00 0.703D+00
 Gap=     0.153 Goal=   None    Shift=    0.000
 Gap=     0.161 Goal=   None    Shift=    0.000
 RMSDP=1.80D-04 MaxDP=1.92D-02 DE=-3.90D-01 OVMax= 4.98D-02

 Cycle   4  Pass 1  IDiag  1:
 RMSU=  1.76D-04    CP:  9.83D-01  1.07D+00  9.53D-01
 E= -2615.18687300094     Delta-E=       -0.019165899397 Rises=F Damp=F
 DIIS: error= 4.03D-03 at cycle   4 NSaved=   4.
 NSaved= 4 IEnMin= 4 EnMin= -2615.18687300094     IErMin= 4 ErrMin= 4.03D-03
 ErrMax= 4.03D-03  0.00D+00 EMaxC= 1.00D-01 BMatC= 4.76D-02 BMatP= 1.37D-01
 IDIUse=3 WtCom= 9.60D-01 WtEn= 4.03D-02
 Coeff-Com: -0.578D-01 0.142D+00 0.418D+00 0.498D+00
 Coeff-En:   0.000D+00 0.000D+00 0.254D+00 0.746D+00
 Coeff:     -0.555D-01 0.136D+00 0.412D+00 0.508D+00
 Gap=     0.155 Goal=   None    Shift=    0.000
 Gap=     0.164 Goal=   None    Shift=    0.000
 RMSDP=8.77D-05 MaxDP=1.42D-02 DE=-1.92D-02 OVMax= 2.44D-02

 Cycle   5  Pass 1  IDiag  1:
 RMSU=  6.75D-05    CP:  9.83D-01  1.08D+00  9.66D-01  6.89D-01
 E= -2615.19694822060     Delta-E=       -0.010075219655 Rises=F Damp=F
 DIIS: error= 9.54D-04 at cycle   5 NSaved=   5.
 NSaved= 5 IEnMin= 5 EnMin= -2615.19694822060     IErMin= 5 ErrMin= 9.54D-04
 ErrMax= 9.54D-04  0.00D+00 EMaxC= 1.00D-01 BMatC= 2.30D-03 BMatP= 4.76D-02
 IDIUse=3 WtCom= 9.90D-01 WtEn= 9.54D-03
 Coeff-Com: -0.163D-01 0.324D-01 0.149D+00 0.250D+00 0.585D+00
 Coeff-En:   0.000D+00 0.000D+00 0.000D+00 0.000D+00 0.100D+01
 Coeff:     -0.161D-01 0.321D-01 0.148D+00 0.247D+00 0.589D+00
 Gap=     0.156 Goal=   None    Shift=    0.000
 Gap=     0.166 Goal=   None    Shift=    0.000
 RMSDP=2.87D-05 MaxDP=3.53D-03 DE=-1.01D-02 OVMax= 7.66D-03

 Cycle   6  Pass 1  IDiag  1:
 RMSU=  2.73D-05    CP:  9.84D-01  1.09D+00  9.73D-01  7.07D-01  9.66D-01
 E= -2615.19751533570     Delta-E=       -0.000567115099 Rises=F Damp=F
 DIIS: error= 1.81D-04 at cycle   6 NSaved=   6.
 NSaved= 6 IEnMin= 6 EnMin= -2615.19751533570     IErMin= 6 ErrMin= 1.81D-04
 ErrMax= 1.81D-04  0.00D+00 EMaxC= 1.00D-01 BMatC= 2.33D-04 BMatP= 2.30D-03
 IDIUse=3 WtCom= 9.98D-01 WtEn= 1.81D-03
 Coeff-Com:  0.730D-03-0.410D-02 0.809D-02 0.353D-01 0.234D+00 0.726D+00
 Coeff-En:   0.000D+00 0.000D+00 0.000D+00 0.000D+00 0.000D+00 0.100D+01
 Coeff:      0.728D-03-0.409D-02 0.808D-02 0.353D-01 0.233D+00 0.727D+00
 Gap=     0.158 Goal=   None    Shift=    0.000
 Gap=     0.168 Goal=   None    Shift=    0.000
 RMSDP=1.65D-05 MaxDP=2.24D-03 DE=-5.67D-04 OVMax= 7.49D-03

 Cycle   7  Pass 1  IDiag  1:
 RMSU=  1.14D-05    CP:  9.84D-01  1.08D+00  9.77D-01  7.29D-01  1.10D+00
                    CP:  1.17D+00
 E= -2615.19764144610     Delta-E=       -0.000126110403 Rises=F Damp=F
 DIIS: error= 9.76D-05 at cycle   7 NSaved=   7.
 NSaved= 7 IEnMin= 7 EnMin= -2615.19764144610     IErMin= 7 ErrMin= 9.76D-05
 ErrMax= 9.76D-05  0.00D+00 EMaxC= 1.00D-01 BMatC= 5.88D-05 BMatP= 2.33D-04
 IDIUse=1 WtCom= 1.00D+00 WtEn= 0.00D+00
 Coeff-Com:  0.452D-02-0.101D-01-0.360D-01-0.544D-01-0.776D-01 0.246D+00
 Coeff-Com:  0.927D+00
 Coeff:      0.452D-02-0.101D-01-0.360D-01-0.544D-01-0.776D-01 0.246D+00
 Coeff:      0.927D+00
 Gap=     0.159 Goal=   None    Shift=    0.000
 Gap=     0.169 Goal=   None    Shift=    0.000
 RMSDP=1.32D-05 MaxDP=1.81D-03 DE=-1.26D-04 OVMax= 6.57D-03

 Cycle   8  Pass 1  IDiag  1:
 RMSU=  5.42D-06    CP:  9.84D-01  1.08D+00  9.81D-01  7.37D-01  1.22D+00
                    CP:  1.43D+00  1.44D+00
 E= -2615.19769874490     Delta-E=       -0.000057298796 Rises=F Damp=F
 DIIS: error= 4.08D-05 at cycle   8 NSaved=   8.
 NSaved= 8 IEnMin= 8 EnMin= -2615.19769874490     IErMin= 8 ErrMin= 4.08D-05
 ErrMax= 4.08D-05  0.00D+00 EMaxC= 1.00D-01 BMatC= 1.98D-05 BMatP= 5.88D-05
 IDIUse=1 WtCom= 1.00D+00 WtEn= 0.00D+00
 Coeff-Com:  0.191D-02-0.349D-02-0.194D-01-0.361D-01-0.101D+00-0.875D-01
 Coeff-Com:  0.445D+00 0.800D+00
 Coeff:      0.191D-02-0.349D-02-0.194D-01-0.361D-01-0.101D+00-0.875D-01
 Coeff:      0.445D+00 0.800D+00
 Gap=     0.159 Goal=   None    Shift=    0.000
 Gap=     0.170 Goal=   None    Shift=    0.000
 RMSDP=7.13D-06 MaxDP=9.47D-04 DE=-5.73D-05 OVMax= 3.94D-03

 Cycle   9  Pass 1  IDiag  1:
 RMSU=  2.75D-06    CP:  9.84D-01  1.08D+00  9.83D-01  7.40D-01  1.27D+00
                    CP:  1.55D+00  1.74D+00  1.47D+00
 E= -2615.19771458087     Delta-E=       -0.000015835979 Rises=F Damp=F
 DIIS: error= 1.67D-05 at cycle   9 NSaved=   9.
 NSaved= 9 IEnMin= 9 EnMin= -2615.19771458087     IErMin= 9 ErrMin= 1.67D-05
 ErrMax= 1.67D-05  0.00D+00 EMaxC= 1.00D-01 BMatC= 3.47D-06 BMatP= 1.98D-05
 IDIUse=1 WtCom= 1.00D+00 WtEn= 0.00D+00
 Coeff-Com: -0.463D-03 0.132D-02 0.200D-02 0.722D-03-0.156D-01-0.917D-01
 Coeff-Com: -0.710D-01 0.292D+00 0.882D+00
 Coeff:     -0.463D-03 0.132D-02 0.200D-02 0.722D-03-0.156D-01-0.917D-01
 Coeff:     -0.710D-01 0.292D+00 0.882D+00
 Gap=     0.159 Goal=   None    Shift=    0.000
 Gap=     0.170 Goal=   None    Shift=    0.000
 RMSDP=3.20D-06 MaxDP=4.58D-04 DE=-1.58D-05 OVMax= 1.74D-03

 Cycle  10  Pass 1  IDiag  1:
 RMSU=  1.23D-06    CP:  9.84D-01  1.08D+00  9.83D-01  7.43D-01  1.28D+00
                    CP:  1.58D+00  1.88D+00  1.83D+00  1.30D+00
 E= -2615.19771722363     Delta-E=       -0.000002642753 Rises=F Damp=F
 DIIS: error= 5.57D-06 at cycle  10 NSaved=  10.
 NSaved=10 IEnMin=10 EnMin= -2615.19771722363     IErMin=10 ErrMin= 5.57D-06
 ErrMax= 5.57D-06  0.00D+00 EMaxC= 1.00D-01 BMatC= 5.18D-07 BMatP= 3.47D-06
 IDIUse=1 WtCom= 1.00D+00 WtEn= 0.00D+00
 Coeff-Com: -0.466D-03 0.103D-02 0.374D-02 0.600D-02 0.947D-02-0.225D-01
 Coeff-Com: -0.921D-01-0.186D-01 0.308D+00 0.805D+00
 Coeff:     -0.466D-03 0.103D-02 0.374D-02 0.600D-02 0.947D-02-0.225D-01
 Coeff:     -0.921D-01-0.186D-01 0.308D+00 0.805D+00
 Gap=     0.159 Goal=   None    Shift=    0.000
 Gap=     0.170 Goal=   None    Shift=    0.000
 RMSDP=1.05D-06 MaxDP=1.55D-04 DE=-2.64D-06 OVMax= 5.24D-04

 Cycle  11  Pass 1  IDiag  1:
 RMSU=  4.19D-07    CP:  9.84D-01  1.08D+00  9.83D-01  7.42D-01  1.28D+00
                    CP:  1.58D+00  1.91D+00  1.94D+00  1.48D+00  1.22D+00
 E= -2615.19771750123     Delta-E=       -0.000000277601 Rises=F Damp=F
 DIIS: error= 3.74D-06 at cycle  11 NSaved=  11.
 NSaved=11 IEnMin=11 EnMin= -2615.19771750123     IErMin=11 ErrMin= 3.74D-06
 ErrMax= 3.74D-06  0.00D+00 EMaxC= 1.00D-01 BMatC= 1.13D-07 BMatP= 5.18D-07
 IDIUse=1 WtCom= 1.00D+00 WtEn= 0.00D+00
 Coeff-Com: -0.130D-03 0.246D-03 0.134D-02 0.255D-02 0.630D-02 0.283D-02
 Coeff-Com: -0.276D-01-0.454D-01 0.538D-02 0.355D+00 0.700D+00
 Coeff:     -0.130D-03 0.246D-03 0.134D-02 0.255D-02 0.630D-02 0.283D-02
 Coeff:     -0.276D-01-0.454D-01 0.538D-02 0.355D+00 0.700D+00
 Gap=     0.159 Goal=   None    Shift=    0.000
 Gap=     0.170 Goal=   None    Shift=    0.000
 RMSDP=3.64D-07 MaxDP=5.14D-05 DE=-2.78D-07 OVMax= 1.54D-04

 Cycle  12  Pass 1  IDiag  1:
 RMSU=  2.16D-07    CP:  9.84D-01  1.08D+00  9.83D-01  7.43D-01  1.28D+00
                    CP:  1.58D+00  1.91D+00  1.97D+00  1.52D+00  1.35D+00
                    CP:  1.16D+00
 E= -2615.19771754697     Delta-E=       -0.000000045744 Rises=F Damp=F
 DIIS: error= 1.82D-06 at cycle  12 NSaved=  12.
 NSaved=12 IEnMin=12 EnMin= -2615.19771754697     IErMin=12 ErrMin= 1.82D-06
 ErrMax= 1.82D-06  0.00D+00 EMaxC= 1.00D-01 BMatC= 1.72D-08 BMatP= 1.13D-07
 IDIUse=1 WtCom= 1.00D+00 WtEn= 0.00D+00
 Coeff-Com:  0.395D-04-0.978D-04-0.255D-03-0.297D-03 0.332D-03 0.468D-02
 Coeff-Com:  0.662D-02-0.101D-01-0.537D-01-0.236D-01 0.242D+00 0.835D+00
 Coeff:      0.395D-04-0.978D-04-0.255D-03-0.297D-03 0.332D-03 0.468D-02
 Coeff:      0.662D-02-0.101D-01-0.537D-01-0.236D-01 0.242D+00 0.835D+00
 Gap=     0.159 Goal=   None    Shift=    0.000
 Gap=     0.170 Goal=   None    Shift=    0.000
 RMSDP=1.75D-07 MaxDP=2.98D-05 DE=-4.57D-08 OVMax= 7.79D-05

 Cycle  13  Pass 1  IDiag  1:
 RMSU=  1.00D-07    CP:  9.84D-01  1.08D+00  9.83D-01  7.43D-01  1.28D+00
                    CP:  1.58D+00  1.92D+00  1.97D+00  1.54D+00  1.41D+00
                    CP:  1.39D+00  1.20D+00
 E= -2615.19771755902     Delta-E=       -0.000000012043 Rises=F Damp=F
 DIIS: error= 1.27D-06 at cycle  13 NSaved=  13.
 NSaved=13 IEnMin=13 EnMin= -2615.19771755902     IErMin=13 ErrMin= 1.27D-06
 ErrMax= 1.27D-06  0.00D+00 EMaxC= 1.00D-01 BMatC= 4.91D-09 BMatP= 1.72D-08
 IDIUse=1 WtCom= 1.00D+00 WtEn= 0.00D+00
 Coeff-Com:  0.413D-04-0.869D-04-0.383D-03-0.665D-03-0.114D-02 0.139D-02
 Coeff-Com:  0.795D-02 0.626D-02-0.212D-01-0.873D-01-0.567D-01 0.344D+00
 Coeff-Com:  0.808D+00
 Coeff:      0.413D-04-0.869D-04-0.383D-03-0.665D-03-0.114D-02 0.139D-02
 Coeff:      0.795D-02 0.626D-02-0.212D-01-0.873D-01-0.567D-01 0.344D+00
 Coeff:      0.808D+00
 Gap=     0.159 Goal=   None    Shift=    0.000
 Gap=     0.170 Goal=   None    Shift=    0.000
 RMSDP=9.80D-08 MaxDP=1.46D-05 DE=-1.20D-08 OVMax= 5.03D-05

 Cycle  14  Pass 1  IDiag  1:
 RMSU=  5.13D-08    CP:  9.84D-01  1.08D+00  9.83D-01  7.43D-01  1.28D+00
                    CP:  1.58D+00  1.92D+00  1.97D+00  1.54D+00  1.43D+00
                    CP:  1.48D+00  1.46D+00  1.26D+00
 E= -2615.19771756367     Delta-E=       -0.000000004650 Rises=F Damp=F
 DIIS: error= 6.83D-07 at cycle  14 NSaved=  14.
 NSaved=14 IEnMin=14 EnMin= -2615.19771756367     IErMin=14 ErrMin= 6.83D-07
 ErrMax= 6.83D-07  0.00D+00 EMaxC= 1.00D-01 BMatC= 1.38D-09 BMatP= 4.91D-09
 IDIUse=1 WtCom= 1.00D+00 WtEn= 0.00D+00
 Coeff-Com:  0.488D-05-0.683D-05-0.811D-04-0.188D-03-0.545D-03-0.645D-03
 Coeff-Com:  0.117D-02 0.516D-02 0.671D-02-0.315D-01-0.964D-01-0.897D-01
 Coeff-Com:  0.330D+00 0.876D+00
 Coeff:      0.488D-05-0.683D-05-0.811D-04-0.188D-03-0.545D-03-0.645D-03
 Coeff:      0.117D-02 0.516D-02 0.671D-02-0.315D-01-0.964D-01-0.897D-01
 Coeff:      0.330D+00 0.876D+00
 Gap=     0.159 Goal=   None    Shift=    0.000
 Gap=     0.170 Goal=   None    Shift=    0.000
 RMSDP=6.12D-08 MaxDP=6.69D-06 DE=-4.65D-09 OVMax= 2.35D-05

 Cycle  15  Pass 1  IDiag  1:
 RMSU=  2.61D-08    CP:  9.84D-01  1.08D+00  9.83D-01  7.43D-01  1.28D+00
                    CP:  1.58D+00  1.92D+00  1.98D+00  1.54D+00  1.44D+00
                    CP:  1.53D+00  1.58D+00  1.59D+00  1.44D+00
 E= -2615.19771756499     Delta-E=       -0.000000001322 Rises=F Damp=F
 DIIS: error= 3.33D-07 at cycle  15 NSaved=  15.
 NSaved=15 IEnMin=15 EnMin= -2615.19771756499     IErMin=15 ErrMin= 3.33D-07
 ErrMax= 3.33D-07  0.00D+00 EMaxC= 1.00D-01 BMatC= 3.84D-10 BMatP= 1.38D-09
 IDIUse=1 WtCom= 1.00D+00 WtEn= 0.00D+00
 Coeff-Com: -0.951D-05 0.214D-04 0.781D-04 0.113D-03 0.850D-04-0.617D-03
 Coeff-Com: -0.178D-02 0.451D-04 0.822D-02 0.140D-01-0.182D-01-0.123D+00
 Coeff-Com: -0.119D+00 0.336D+00 0.905D+00
 Coeff:     -0.951D-05 0.214D-04 0.781D-04 0.113D-03 0.850D-04-0.617D-03
 Coeff:     -0.178D-02 0.451D-04 0.822D-02 0.140D-01-0.182D-01-0.123D+00
 Coeff:     -0.119D+00 0.336D+00 0.905D+00
 Gap=     0.159 Goal=   None    Shift=    0.000
 Gap=     0.170 Goal=   None    Shift=    0.000
 RMSDP=3.60D-08 MaxDP=3.59D-06 DE=-1.32D-09 OVMax= 1.44D-05

 Cycle  16  Pass 1  IDiag  1:
 RMSU=  1.33D-08    CP:  9.84D-01  1.08D+00  9.83D-01  7.43D-01  1.28D+00
                    CP:  1.58D+00  1.92D+00  1.98D+00  1.54D+00  1.44D+00
                    CP:  1.54D+00  1.63D+00  1.73D+00  1.88D+00  1.33D+00
 E= -2615.19771756563     Delta-E=       -0.000000000644 Rises=F Damp=F
 DIIS: error= 1.64D-07 at cycle  16 NSaved=  16.
 NSaved=16 IEnMin=16 EnMin= -2615.19771756563     IErMin=16 ErrMin= 1.64D-07
 ErrMax= 1.64D-07  0.00D+00 EMaxC= 1.00D-01 BMatC= 9.97D-11 BMatP= 3.84D-10
 IDIUse=1 WtCom= 1.00D+00 WtEn= 0.00D+00
 Coeff-Com: -0.417D-05 0.845D-05 0.497D-04 0.894D-04 0.159D-03-0.677D-04
 Coeff-Com: -0.982D-03-0.136D-02 0.135D-02 0.142D-01 0.167D-01-0.279D-01
 Coeff-Com: -0.144D+00-0.919D-01 0.373D+00 0.861D+00
 Coeff:     -0.417D-05 0.845D-05 0.497D-04 0.894D-04 0.159D-03-0.677D-04
 Coeff:     -0.982D-03-0.136D-02 0.135D-02 0.142D-01 0.167D-01-0.279D-01
 Coeff:     -0.144D+00-0.919D-01 0.373D+00 0.861D+00
 Gap=     0.159 Goal=   None    Shift=    0.000
 Gap=     0.170 Goal=   None    Shift=    0.000
 RMSDP=1.73D-08 MaxDP=2.07D-06 DE=-6.44D-10 OVMax= 7.42D-06

 Cycle  17  Pass 1  IDiag  1:
 RMSU=  7.48D-09    CP:  9.84D-01  1.08D+00  9.83D-01  7.43D-01  1.28D+00
                    CP:  1.58D+00  1.92D+00  1.98D+00  1.54D+00  1.44D+00
                    CP:  1.54D+00  1.64D+00  1.81D+00  2.04D+00  1.67D+00
                    CP:  1.32D+00
 E= -2615.19771756551     Delta-E=        0.000000000126 Rises=F Damp=F
 DIIS: error= 1.05D-07 at cycle  17 NSaved=  17.
 NSaved=17 IEnMin=16 EnMin= -2615.19771756563     IErMin=17 ErrMin= 1.05D-07
 ErrMax= 1.05D-07  0.00D+00 EMaxC= 1.00D-01 BMatC= 1.91D-11 BMatP= 9.97D-11
 IDIUse=1 WtCom= 1.00D+00 WtEn= 0.00D+00
 Coeff-Com:  0.106D-05-0.250D-05-0.465D-05-0.250D-05 0.178D-04 0.110D-03
 Coeff-Com:  0.135D-03-0.333D-03-0.139D-02 0.800D-03 0.815D-02 0.209D-01
 Coeff-Com: -0.945D-02-0.999D-01-0.117D+00 0.230D+00 0.968D+00
 Coeff:      0.106D-05-0.250D-05-0.465D-05-0.250D-05 0.178D-04 0.110D-03
 Coeff:      0.135D-03-0.333D-03-0.139D-02 0.800D-03 0.815D-02 0.209D-01
 Coeff:     -0.945D-02-0.999D-01-0.117D+00 0.230D+00 0.968D+00
 Gap=     0.159 Goal=   None    Shift=    0.000
 Gap=     0.170 Goal=   None    Shift=    0.000
 RMSDP=8.65D-09 MaxDP=8.67D-07 DE= 1.26D-10 OVMax= 5.18D-06

 Error on total polarization charges =  0.02447
 SCF Done:  E(UM062X) =  -2615.19771757     A.U. after   17 cycles
            NFock= 17  Conv=0.87D-08     -V/T= 2.0038
 <Sx>= 0.0000 <Sy>= 0.0000 <Sz>= 0.5000 <S**2>= 0.7711 S= 0.5105
 <L.S>= 0.000000000000E+00
 KE= 2.605267927229D+03 PE=-1.542046461758D+04 EE= 5.577001386971D+03
 Annihilation of the first spin contaminant:
 S**2 before annihilation     0.7711,   after     0.7504
 Leave Link  502 at Thu Nov  6 17:25:41 2025, MaxMem= 30870077440 cpu:           73853.3 elap:            1169.6
 (Enter /public/software/gauss/g16/l601.exe)
 Copying SCF densities to generalized density rwf, IOpCl= 1 IROHF=0.

 **********************************************************************

            Population analysis using the SCF density.

 **********************************************************************

 Orbital symmetries:
 Alpha Orbitals:
       Occupied  (A) (A) (A) (A) (A) (A) (A) (A) (A) (A) (A) (A)
                 (A) (A) (A) (A) (A) (A) (A) (A) (A) (A) (A) (A)
                 (A) (A) (A) (A) (A) (A) (A) (A) (A) (A) (A) (A)
                 (A) (A) (A) (A) (A) (A) (A) (A) (A) (A) (A) (A)
                 (A) (A) (A) (A) (A) (A) (A) (A) (A) (A) (A) (A)
                 (A) (A) (A) (A) (A) (A) (A) (A) (A) (A) (A) (A)
                 (A) (A) (A) (A) (A) (A) (A) (A) (A) (A) (A) (A)
                 (A) (A) (A) (A) (A) (A) (A) (A) (A) (A) (A) (A)
                 (A) (A) (A) (A) (A) (A) (A) (A) (A) (A) (A) (A)
                 (A) (A) (A) (A) (A) (A) (A) (A) (A) (A) (A) (A)
                 (A) (A) (A) (A) (A) (A) (A) (A) (A) (A) (A) (A)
                 (A) (A) (A) (A) (A) (A) (A) (A) (A) (A) (A) (A)
                 (A) (A) (A) (A)
       Virtual   (A) (A) (A) (A) (A) (A) (A) (A) (A) (A) (A) (A)
                 (A) (A) (A) (A) (A) (A) (A) (A) (A) (A) (A) (A)
                 (A) (A) (A) (A) (A) (A) (A) (A) (A) (A) (A) (A)
                 (A) (A) (A) (A) (A) (A) (A) (A) (A) (A) (A) (A)
                 (A) (A) (A) (A) (A) (A) (A) (A) (A) (A) (A) (A)
                 (A) (A) (A) (A) (A) (A) (A) (A) (A) (A) (A) (A)
                 (A) (A) (A) (A) (A) (A) (A) (A) (A) (A) (A) (A)
                 (A) (A) (A) (A) (A) (A) (A) (A) (A) (A) (A) (A)
                 (A) (A) (A) (A) (A) (A) (A) (A) (A) (A) (A) (A)
                 (A) (A) (A) (A) (A) (A) (A) (A) (A) (A) (A) (A)
                 (A) (A) (A) (A) (A) (A) (A) (A) (A) (A) (A) (A)
                 (A) (A) (A) (A) (A) (A) (A) (A) (A) (A) (A) (A)
                 (A) (A) (A) (A) (A) (A) (A) (A) (A) (A) (A) (A)
                 (A) (A) (A) (A) (A) (A) (A) (A) (A) (A) (A) (A)
                 (A) (A) (A) (A) (A) (A) (A) (A) (A) (A) (A) (A)
                 (A) (A) (A) (A) (A) (A) (A) (A) (A) (A) (A) (A)
                 (A) (A) (A) (A) (A) (A) (A) (A) (A) (A) (A) (A)
                 (A) (A) (A) (A) (A) (A) (A) (A) (A) (A) (A) (A)
                 (A) (A) (A) (A) (A) (A) (A) (A) (A) (A) (A) (A)
                 (A) (A) (A) (A) (A) (A) (A) (A) (A) (A) (A) (A)
                 (A) (A) (A) (A) (A) (A) (A) (A) (A) (A) (A) (A)
                 (A) (A) (A) (A) (A) (A) (A) (A) (A) (A) (A) (A)
                 (A) (A) (A) (A) (A) (A) (A) (A) (A) (A) (A) (A)
                 (A) (A) (A) (A) (A) (A) (A) (A) (A) (A) (A) (A)
                 (A) (A) (A) (A) (A) (A) (A) (A) (A) (A) (A) (A)
                 (A) (A) (A) (A) (A) (A) (A) (A) (A) (A) (A) (A)
                 (A) (A) (A) (A) (A) (A) (A) (A) (A) (A) (A) (A)
                 (A) (A) (A) (A) (A) (A) (A) (A) (A) (A) (A) (A)
                 (A) (A) (A) (A) (A) (A) (A) (A) (A) (A) (A) (A)
                 (A) (A) (A) (A) (A) (A) (A) (A) (A) (A) (A) (A)
                 (A) (A) (A) (A) (A) (A) (A) (A) (A) (A) (A) (A)
                 (A) (A) (A) (A) (A) (A) (A) (A) (A) (A) (A) (A)
                 (A) (A) (A) (A) (A) (A) (A) (A) (A) (A) (A) (A)
                 (A) (A) (A) (A) (A) (A) (A) (A) (A) (A) (A) (A)
                 (A) (A) (A) (A) (A) (A) (A) (A) (A) (A) (A) (A)
                 (A) (A) (A) (A) (A) (A) (A) (A) (A) (A) (A) (A)
                 (A) (A) (A) (A) (A) (A) (A) (A) (A) (A) (A) (A)
                 (A) (A) (A) (A) (A) (A) (A) (A) (A) (A) (A) (A)
                 (A) (A) (A) (A) (A) (A) (A) (A) (A) (A) (A) (A)
                 (A) (A) (A) (A) (A) (A) (A) (A) (A) (A) (A) (A)
                 (A) (A) (A) (A) (A) (A) (A) (A) (A) (A) (A) (A)
                 (A) (A) (A) (A) (A) (A) (A) (A) (A) (A) (A) (A)
                 (A) (A) (A) (A) (A) (A) (A) (A) (A) (A) (A) (A)
                 (A) (A) (A) (A) (A) (A) (A) (A) (A) (A) (A) (A)
                 (A) (A) (A) (A) (A) (A) (A) (A) (A) (A) (A) (A)
                 (A) (A) (A) (A) (A) (A) (A) (A) (A) (A) (A) (A)
                 (A) (A) (A) (A) (A) (A) (A) (A) (A) (A) (A) (A)
                 (A) (A) (A) (A) (A) (A) (A) (A) (A) (A) (A) (A)
                 (A) (A) (A) (A) (A) (A) (A) (A) (A) (A) (A) (A)
                 (A) (A) (A) (A) (A) (A) (A) (A) (A) (A) (A) (A)
                 (A) (A) (A) (A) (A) (A) (A) (A) (A) (A) (A) (A)
                 (A) (A) (A) (A) (A) (A) (A) (A) (A) (A) (A) (A)
                 (A) (A) (A) (A) (A) (A) (A) (A) (A) (A) (A) (A)
                 (A) (A) (A) (A) (A) (A) (A) (A) (A) (A) (A) (A)
                 (A) (A) (A) (A) (A) (A) (A) (A) (A) (A) (A) (A)
                 (A) (A) (A) (A) (A) (A) (A) (A) (A) (A) (A) (A)
                 (A) (A) (A) (A) (A) (A) (A) (A) (A) (A) (A) (A)
                 (A) (A) (A) (A) (A) (A) (A) (A) (A) (A) (A) (A)
                 (A) (A) (A) (A) (A) (A) (A) (A) (A) (A) (A) (A)
                 (A) (A) (A) (A) (A) (A) (A) (A) (A) (A) (A) (A)
                 (A) (A) (A) (A) (A) (A) (A) (A) (A) (A) (A) (A)
                 (A) (A) (A) (A) (A) (A) (A) (A) (A) (A) (A) (A)
                 (A) (A) (A) (A) (A) (A) (A) (A) (A) (A) (A) (A)
                 (A) (A) (A) (A) (A) (A) (A) (A) (A) (A) (A) (A)
                 (A) (A) (A) (A) (A) (A) (A) (A) (A) (A) (A) (A)
                 (A) (A) (A) (A) (A) (A) (A) (A) (A) (A) (A) (A)
                 (A) (A) (A) (A) (A) (A) (A) (A) (A) (A) (A) (A)
                 (A) (A) (A) (A) (A) (A) (A) (A) (A) (A) (A) (A)
                 (A) (A) (A) (A) (A) (A) (A) (A) (A) (A) (A) (A)
                 (A) (A) (A) (A) (A) (A) (A) (A) (A) (A) (A) (A)
                 (A) (A) (A) (A) (A) (A) (A) (A) (A) (A) (A) (A)
                 (A) (A) (A) (A) (A) (A) (A) (A) (A) (A) (A) (A)
                 (A) (A) (A) (A) (A) (A) (A) (A) (A) (A) (A) (A)
                 (A) (A) (A) (A) (A) (A) (A) (A) (A) (A) (A) (A)
                 (A) (A) (A) (A) (A) (A) (A) (A) (A) (A) (A) (A)
                 (A) (A) (A) (A) (A) (A) (A) (A) (A) (A) (A) (A)
                 (A) (A) (A) (A) (A) (A) (A) (A) (A) (A) (A) (A)
                 (A) (A) (A) (A) (A) (A) (A) (A) (A) (A) (A) (A)
                 (A) (A) (A) (A) (A) (A) (A) (A) (A) (A) (A) (A)
                 (A) (A) (A) (A) (A) (A) (A) (A) (A) (A) (A) (A)
                 (A) (A) (A) (A) (A) (A) (A) (A) (A) (A) (A) (A)
                 (A) (A) (A) (A) (A) (A) (A) (A) (A) (A) (A) (A)
                 (A) (A) (A) (A) (A) (A) (A) (A) (A) (A) (A) (A)
                 (A) (A) (A) (A) (A) (A) (A) (A) (A) (A) (A) (A)
                 (A) (A) (A) (A) (A) (A) (A) (A) (A) (A) (A) (A)
                 (A) (A) (A) (A) (A) (A) (A) (A) (A) (A) (A) (A)
                 (A) (A) (A) (A) (A) (A) (A) (A) (A) (A) (A) (A)
                 (A) (A) (A) (A) (A) (A) (A) (A) (A) (A) (A) (A)
                 (A) (A) (A) (A) (A) (A) (A) (A) (A) (A) (A) (A)
                 (A) (A) (A) (A) (A) (A) (A) (A) (A) (A) (A) (A)
                 (A) (A) (A) (A) (A) (A) (A) (A) (A) (A) (A) (A)
                 (A) (A) (A) (A) (A) (A) (A) (A) (A) (A) (A) (A)
                 (A) (A) (A) (A) (A) (A) (A) (A) (A) (A) (A) (A)
                 (A) (A) (A) (A) (A) (A) (A) (A) (A) (A) (A) (A)
                 (A) (A) (A) (A) (A) (A) (A) (A) (A) (A) (A) (A)
                 (A) (A) (A) (A) (A) (A) (A) (A) (A) (A) (A) (A)
                 (A) (A) (A) (A) (A) (A) (A) (A) (A) (A) (A) (A)
                 (A) (A) (A) (A) (A) (A) (A) (A) (A) (A) (A) (A)
                 (A) (A) (A) (A) (A) (A) (A) (A) (A) (A) (A) (A)
                 (A) (A) (A) (A) (A) (A) (A) (A) (A) (A) (A) (A)
                 (A) (A) (A) (A) (A) (A) (A) (A) (A) (A) (A) (A)
                 (A) (A) (A) (A) (A) (A) (A) (A) (A) (A) (A) (A)
                 (A) (A) (A) (A) (A) (A) (A) (A) (A) (A) (A) (A)
                 (A) (A) (A) (A) (A) (A) (A) (A) (A) (A) (A) (A)
                 (A) (A) (A) (A) (A) (A) (A) (A) (A) (A) (A) (A)
                 (A) (A) (A) (A) (A) (A) (A) (A) (A) (A) (A) (A)
                 (A) (A) (A) (A) (A) (A) (A) (A) (A) (A) (A) (A)
                 (A) (A) (A) (A) (A) (A) (A) (A) (A) (A) (A) (A)
                 (A) (A) (A) (A) (A) (A) (A) (A) (A) (A) (A) (A)
                 (A) (A) (A) (A) (A) (A) (A) (A) (A) (A) (A) (A)
                 (A) (A) (A) (A) (A) (A) (A) (A) (A) (A) (A) (A)
                 (A) (A) (A) (A) (A) (A) (A) (A) (A) (A) (A) (A)
                 (A) (A) (A) (A) (A) (A) (A) (A) (A) (A) (A) (A)
                 (A) (A) (A) (A) (A) (A) (A) (A) (A) (A) (A) (A)
                 (A) (A) (A) (A) (A) (A) (A) (A) (A) (A) (A) (A)
                 (A) (A) (A) (A) (A) (A) (A) (A) (A) (A) (A) (A)
                 (A) (A)
 Beta  Orbitals:
       Occupied  (A) (A) (A) (A) (A) (A) (A) (A) (A) (A) (A) (A)
                 (A) (A) (A) (A) (A) (A) (A) (A) (A) (A) (A) (A)
                 (A) (A) (A) (A) (A) (A) (A) (A) (A) (A) (A) (A)
                 (A) (A) (A) (A) (A) (A) (A) (A) (A) (A) (A) (A)
                 (A) (A) (A) (A) (A) (A) (A) (A) (A) (A) (A) (A)
                 (A) (A) (A) (A) (A) (A) (A) (A) (A) (A) (A) (A)
                 (A) (A) (A) (A) (A) (A) (A) (A) (A) (A) (A) (A)
                 (A) (A) (A) (A) (A) (A) (A) (A) (A) (A) (A) (A)
                 (A) (A) (A) (A) (A) (A) (A) (A) (A) (A) (A) (A)
                 (A) (A) (A) (A) (A) (A) (A) (A) (A) (A) (A) (A)
                 (A) (A) (A) (A) (A) (A) (A) (A) (A) (A) (A) (A)
                 (A) (A) (A) (A) (A) (A) (A) (A) (A) (A) (A) (A)
                 (A) (A) (A)
       Virtual   (A) (A) (A) (A) (A) (A) (A) (A) (A) (A) (A) (A)
                 (A) (A) (A) (A) (A) (A) (A) (A) (A) (A) (A) (A)
                 (A) (A) (A) (A) (A) (A) (A) (A) (A) (A) (A) (A)
                 (A) (A) (A) (A) (A) (A) (A) (A) (A) (A) (A) (A)
                 (A) (A) (A) (A) (A) (A) (A) (A) (A) (A) (A) (A)
                 (A) (A) (A) (A) (A) (A) (A) (A) (A) (A) (A) (A)
                 (A) (A) (A) (A) (A) (A) (A) (A) (A) (A) (A) (A)
                 (A) (A) (A) (A) (A) (A) (A) (A) (A) (A) (A) (A)
                 (A) (A) (A) (A) (A) (A) (A) (A) (A) (A) (A) (A)
                 (A) (A) (A) (A) (A) (A) (A) (A) (A) (A) (A) (A)
                 (A) (A) (A) (A) (A) (A) (A) (A) (A) (A) (A) (A)
                 (A) (A) (A) (A) (A) (A) (A) (A) (A) (A) (A) (A)
                 (A) (A) (A) (A) (A) (A) (A) (A) (A) (A) (A) (A)
                 (A) (A) (A) (A) (A) (A) (A) (A) (A) (A) (A) (A)
                 (A) (A) (A) (A) (A) (A) (A) (A) (A) (A) (A) (A)
                 (A) (A) (A) (A) (A) (A) (A) (A) (A) (A) (A) (A)
                 (A) (A) (A) (A) (A) (A) (A) (A) (A) (A) (A) (A)
                 (A) (A) (A) (A) (A) (A) (A) (A) (A) (A) (A) (A)
                 (A) (A) (A) (A) (A) (A) (A) (A) (A) (A) (A) (A)
                 (A) (A) (A) (A) (A) (A) (A) (A) (A) (A) (A) (A)
                 (A) (A) (A) (A) (A) (A) (A) (A) (A) (A) (A) (A)
                 (A) (A) (A) (A) (A) (A) (A) (A) (A) (A) (A) (A)
                 (A) (A) (A) (A) (A) (A) (A) (A) (A) (A) (A) (A)
                 (A) (A) (A) (A) (A) (A) (A) (A) (A) (A) (A) (A)
                 (A) (A) (A) (A) (A) (A) (A) (A) (A) (A) (A) (A)
                 (A) (A) (A) (A) (A) (A) (A) (A) (A) (A) (A) (A)
                 (A) (A) (A) (A) (A) (A) (A) (A) (A) (A) (A) (A)
                 (A) (A) (A) (A) (A) (A) (A) (A) (A) (A) (A) (A)
                 (A) (A) (A) (A) (A) (A) (A) (A) (A) (A) (A) (A)
                 (A) (A) (A) (A) (A) (A) (A) (A) (A) (A) (A) (A)
                 (A) (A) (A) (A) (A) (A) (A) (A) (A) (A) (A) (A)
                 (A) (A) (A) (A) (A) (A) (A) (A) (A) (A) (A) (A)
                 (A) (A) (A) (A) (A) (A) (A) (A) (A) (A) (A) (A)
                 (A) (A) (A) (A) (A) (A) (A) (A) (A) (A) (A) (A)
                 (A) (A) (A) (A) (A) (A) (A) (A) (A) (A) (A) (A)
                 (A) (A) (A) (A) (A) (A) (A) (A) (A) (A) (A) (A)
                 (A) (A) (A) (A) (A) (A) (A) (A) (A) (A) (A) (A)
                 (A) (A) (A) (A) (A) (A) (A) (A) (A) (A) (A) (A)
                 (A) (A) (A) (A) (A) (A) (A) (A) (A) (A) (A) (A)
                 (A) (A) (A) (A) (A) (A) (A) (A) (A) (A) (A) (A)
                 (A) (A) (A) (A) (A) (A) (A) (A) (A) (A) (A) (A)
                 (A) (A) (A) (A) (A) (A) (A) (A) (A) (A) (A) (A)
                 (A) (A) (A) (A) (A) (A) (A) (A) (A) (A) (A) (A)
                 (A) (A) (A) (A) (A) (A) (A) (A) (A) (A) (A) (A)
                 (A) (A) (A) (A) (A) (A) (A) (A) (A) (A) (A) (A)
                 (A) (A) (A) (A) (A) (A) (A) (A) (A) (A) (A) (A)
                 (A) (A) (A) (A) (A) (A) (A) (A) (A) (A) (A) (A)
                 (A) (A) (A) (A) (A) (A) (A) (A) (A) (A) (A) (A)
                 (A) (A) (A) (A) (A) (A) (A) (A) (A) (A) (A) (A)
                 (A) (A) (A) (A) (A) (A) (A) (A) (A) (A) (A) (A)
                 (A) (A) (A) (A) (A) (A) (A) (A) (A) (A) (A) (A)
                 (A) (A) (A) (A) (A) (A) (A) (A) (A) (A) (A) (A)
                 (A) (A) (A) (A) (A) (A) (A) (A) (A) (A) (A) (A)
                 (A) (A) (A) (A) (A) (A) (A) (A) (A) (A) (A) (A)
                 (A) (A) (A) (A) (A) (A) (A) (A) (A) (A) (A) (A)
                 (A) (A) (A) (A) (A) (A) (A) (A) (A) (A) (A) (A)
                 (A) (A) (A) (A) (A) (A) (A) (A) (A) (A) (A) (A)
                 (A) (A) (A) (A) (A) (A) (A) (A) (A) (A) (A) (A)
                 (A) (A) (A) (A) (A) (A) (A) (A) (A) (A) (A) (A)
                 (A) (A) (A) (A) (A) (A) (A) (A) (A) (A) (A) (A)
                 (A) (A) (A) (A) (A) (A) (A) (A) (A) (A) (A) (A)
                 (A) (A) (A) (A) (A) (A) (A) (A) (A) (A) (A) (A)
                 (A) (A) (A) (A) (A) (A) (A) (A) (A) (A) (A) (A)
                 (A) (A) (A) (A) (A) (A) (A) (A) (A) (A) (A) (A)
                 (A) (A) (A) (A) (A) (A) (A) (A) (A) (A) (A) (A)
                 (A) (A) (A) (A) (A) (A) (A) (A) (A) (A) (A) (A)
                 (A) (A) (A) (A) (A) (A) (A) (A) (A) (A) (A) (A)
                 (A) (A) (A) (A) (A) (A) (A) (A) (A) (A) (A) (A)
                 (A) (A) (A) (A) (A) (A) (A) (A) (A) (A) (A) (A)
                 (A) (A) (A) (A) (A) (A) (A) (A) (A) (A) (A) (A)
                 (A) (A) (A) (A) (A) (A) (A) (A) (A) (A) (A) (A)
                 (A) (A) (A) (A) (A) (A) (A) (A) (A) (A) (A) (A)
                 (A) (A) (A) (A) (A) (A) (A) (A) (A) (A) (A) (A)
                 (A) (A) (A) (A) (A) (A) (A) (A) (A) (A) (A) (A)
                 (A) (A) (A) (A) (A) (A) (A) (A) (A) (A) (A) (A)
                 (A) (A) (A) (A) (A) (A) (A) (A) (A) (A) (A) (A)
                 (A) (A) (A) (A) (A) (A) (A) (A) (A) (A) (A) (A)
                 (A) (A) (A) (A) (A) (A) (A) (A) (A) (A) (A) (A)
                 (A) (A) (A) (A) (A) (A) (A) (A) (A) (A) (A) (A)
                 (A) (A) (A) (A) (A) (A) (A) (A) (A) (A) (A) (A)
                 (A) (A) (A) (A) (A) (A) (A) (A) (A) (A) (A) (A)
                 (A) (A) (A) (A) (A) (A) (A) (A) (A) (A) (A) (A)
                 (A) (A) (A) (A) (A) (A) (A) (A) (A) (A) (A) (A)
                 (A) (A) (A) (A) (A) (A) (A) (A) (A) (A) (A) (A)
                 (A) (A) (A) (A) (A) (A) (A) (A) (A) (A) (A) (A)
                 (A) (A) (A) (A) (A) (A) (A) (A) (A) (A) (A) (A)
                 (A) (A) (A) (A) (A) (A) (A) (A) (A) (A) (A) (A)
                 (A) (A) (A) (A) (A) (A) (A) (A) (A) (A) (A) (A)
                 (A) (A) (A) (A) (A) (A) (A) (A) (A) (A) (A) (A)
                 (A) (A) (A) (A) (A) (A) (A) (A) (A) (A) (A) (A)
                 (A) (A) (A) (A) (A) (A) (A) (A) (A) (A) (A) (A)
                 (A) (A) (A) (A) (A) (A) (A) (A) (A) (A) (A) (A)
                 (A) (A) (A) (A) (A) (A) (A) (A) (A) (A) (A) (A)
                 (A) (A) (A) (A) (A) (A) (A) (A) (A) (A) (A) (A)
                 (A) (A) (A) (A) (A) (A) (A) (A) (A) (A) (A) (A)
                 (A) (A) (A) (A) (A) (A) (A) (A) (A) (A) (A) (A)
                 (A) (A) (A) (A) (A) (A) (A) (A) (A) (A) (A) (A)
                 (A) (A) (A) (A) (A) (A) (A) (A) (A) (A) (A) (A)
                 (A) (A) (A) (A) (A) (A) (A) (A) (A) (A) (A) (A)
                 (A) (A) (A) (A) (A) (A) (A) (A) (A) (A) (A) (A)
                 (A) (A) (A) (A) (A) (A) (A) (A) (A) (A) (A) (A)
                 (A) (A) (A) (A) (A) (A) (A) (A) (A) (A) (A) (A)
                 (A) (A) (A) (A) (A) (A) (A) (A) (A) (A) (A) (A)
                 (A) (A) (A) (A) (A) (A) (A) (A) (A) (A) (A) (A)
                 (A) (A) (A) (A) (A) (A) (A) (A) (A) (A) (A) (A)
                 (A) (A) (A) (A) (A) (A) (A) (A) (A) (A) (A) (A)
                 (A) (A) (A) (A) (A) (A) (A) (A) (A) (A) (A) (A)
                 (A) (A) (A) (A) (A) (A) (A) (A) (A) (A) (A) (A)
                 (A) (A) (A) (A) (A) (A) (A) (A) (A) (A) (A) (A)
                 (A) (A) (A) (A) (A) (A) (A) (A) (A) (A) (A) (A)
                 (A) (A) (A) (A) (A) (A) (A) (A) (A) (A) (A) (A)
                 (A) (A) (A) (A) (A) (A) (A) (A) (A) (A) (A) (A)
                 (A) (A) (A) (A) (A) (A) (A) (A) (A) (A) (A) (A)
                 (A) (A) (A) (A) (A) (A) (A) (A) (A) (A) (A) (A)
                 (A) (A) (A) (A) (A) (A) (A) (A) (A) (A) (A) (A)
                 (A) (A) (A) (A) (A) (A) (A) (A) (A) (A) (A) (A)
                 (A) (A) (A)
 The electronic state is 2-A.
 Alpha  occ. eigenvalues -- -102.64723-102.64719 -25.19212 -25.19210 -19.66132
 Alpha  occ. eigenvalues --  -19.66126 -14.77009 -14.77007 -14.76545 -10.60998
 Alpha  occ. eigenvalues --  -10.60997 -10.59450 -10.58952 -10.58848 -10.58837
 Alpha  occ. eigenvalues --  -10.58605 -10.58595 -10.58148 -10.58137 -10.57734
 Alpha  occ. eigenvalues --  -10.57732 -10.57711 -10.56925 -10.56920 -10.56282
 Alpha  occ. eigenvalues --  -10.55861 -10.55858 -10.55609 -10.55593 -10.55122
 Alpha  occ. eigenvalues --  -10.55068 -10.54893 -10.54816 -10.54585 -10.54529
 Alpha  occ. eigenvalues --  -10.54372 -10.54323 -10.53609 -10.53605  -9.80927
 Alpha  occ. eigenvalues --   -9.80923  -7.53124  -7.53121  -7.52621  -7.52619
 Alpha  occ. eigenvalues --   -7.52618  -7.52616  -7.11839  -1.31032  -1.27875
 Alpha  occ. eigenvalues --   -1.18899  -1.18897  -1.08962  -1.07217  -1.02584
 Alpha  occ. eigenvalues --   -0.98498  -0.96852  -0.96434  -0.95881  -0.95697
 Alpha  occ. eigenvalues --   -0.92106  -0.87544  -0.87481  -0.86395  -0.85992
 Alpha  occ. eigenvalues --   -0.85242  -0.85075  -0.84640  -0.84434  -0.81003
 Alpha  occ. eigenvalues --   -0.79868  -0.77462  -0.75827  -0.71852  -0.71233
 Alpha  occ. eigenvalues --   -0.70111  -0.69991  -0.68494  -0.68037  -0.66281
 Alpha  occ. eigenvalues --   -0.65783  -0.64665  -0.63773  -0.63191  -0.61470
 Alpha  occ. eigenvalues --   -0.60583  -0.59310  -0.58800  -0.58672  -0.57266
 Alpha  occ. eigenvalues --   -0.56277  -0.56032  -0.55279  -0.54888  -0.54868
 Alpha  occ. eigenvalues --   -0.54427  -0.53975  -0.53007  -0.52173  -0.52011
 Alpha  occ. eigenvalues --   -0.51400  -0.51308  -0.50810  -0.50482  -0.50131
 Alpha  occ. eigenvalues --   -0.49983  -0.49430  -0.49137  -0.48677  -0.48146
 Alpha  occ. eigenvalues --   -0.47942  -0.47677  -0.47658  -0.46927  -0.46700
 Alpha  occ. eigenvalues --   -0.45823  -0.45738  -0.45402  -0.45134  -0.44880
 Alpha  occ. eigenvalues --   -0.44095  -0.43999  -0.43560  -0.42995  -0.42949
 Alpha  occ. eigenvalues --   -0.42373  -0.42151  -0.42063  -0.41710  -0.41026
 Alpha  occ. eigenvalues --   -0.40345  -0.39604  -0.39453  -0.39359  -0.39305
 Alpha  occ. eigenvalues --   -0.37693  -0.37051  -0.35994  -0.33016  -0.31543
 Alpha  occ. eigenvalues --   -0.31518  -0.31248  -0.30747  -0.30519  -0.29312
 Alpha  occ. eigenvalues --   -0.28100  -0.25438  -0.18725
 Alpha virt. eigenvalues --   -0.02784   0.00397   0.01265   0.01411   0.01702
 Alpha virt. eigenvalues --    0.02073   0.06424   0.06616   0.06959   0.07351
 Alpha virt. eigenvalues --    0.07669   0.07940   0.08081   0.08471   0.08641
 Alpha virt. eigenvalues --    0.09159   0.09319   0.09758   0.09919   0.10255
 Alpha virt. eigenvalues --    0.10540   0.11057   0.11328   0.11449   0.11948
 Alpha virt. eigenvalues --    0.12402   0.12639   0.12999   0.13324   0.13887
 Alpha virt. eigenvalues --    0.14318   0.14551   0.14798   0.15130   0.15441
 Alpha virt. eigenvalues --    0.15532   0.15826   0.16127   0.16213   0.17047
 Alpha virt. eigenvalues --    0.17283   0.17493   0.17760   0.18290   0.18573
 Alpha virt. eigenvalues --    0.18819   0.18989   0.19626   0.19940   0.20723
 Alpha virt. eigenvalues --    0.21654   0.21694   0.21904   0.22301   0.22504
 Alpha virt. eigenvalues --    0.22812   0.23147   0.23257   0.23816   0.23975
 Alpha virt. eigenvalues --    0.24071   0.24345   0.24428   0.24688   0.25096
 Alpha virt. eigenvalues --    0.25521   0.25778   0.25993   0.26276   0.26496
 Alpha virt. eigenvalues --    0.26768   0.27074   0.27389   0.27486   0.27642
 Alpha virt. eigenvalues --    0.27817   0.28088   0.28499   0.28722   0.29103
 Alpha virt. eigenvalues --    0.29274   0.29628   0.30072   0.30385   0.30688
 Alpha virt. eigenvalues --    0.30700   0.30951   0.31263   0.31712   0.31949
 Alpha virt. eigenvalues --    0.32026   0.32184   0.32595   0.32750   0.33044
 Alpha virt. eigenvalues --    0.33375   0.33445   0.33820   0.34151   0.34429
 Alpha virt. eigenvalues --    0.34653   0.35059   0.35337   0.35751   0.36033
 Alpha virt. eigenvalues --    0.36300   0.36660   0.36774   0.37461   0.37482
 Alpha virt. eigenvalues --    0.37852   0.38212   0.38293   0.38395   0.38458
 Alpha virt. eigenvalues --    0.38788   0.39103   0.39652   0.40049   0.40093
 Alpha virt. eigenvalues --    0.40121   0.40347   0.40394   0.40661   0.40775
 Alpha virt. eigenvalues --    0.41119   0.41148   0.41402   0.41618   0.41867
 Alpha virt. eigenvalues --    0.42255   0.42526   0.42721   0.42860   0.43068
 Alpha virt. eigenvalues --    0.43198   0.43481   0.43803   0.44144   0.44404
 Alpha virt. eigenvalues --    0.44675   0.44859   0.45577   0.45669   0.45935
 Alpha virt. eigenvalues --    0.46106   0.46176   0.46555   0.46741   0.47036
 Alpha virt. eigenvalues --    0.47307   0.47429   0.47619   0.48162   0.48202
 Alpha virt. eigenvalues --    0.48426   0.48573   0.49044   0.49450   0.49664
 Alpha virt. eigenvalues --    0.49727   0.49982   0.50076   0.50481   0.50557
 Alpha virt. eigenvalues --    0.50698   0.51169   0.51434   0.51921   0.52228
 Alpha virt. eigenvalues --    0.52424   0.52731   0.52976   0.53167   0.53640
 Alpha virt. eigenvalues --    0.53778   0.54567   0.54639   0.55110   0.55598
 Alpha virt. eigenvalues --    0.55926   0.56064   0.56237   0.57110   0.57550
 Alpha virt. eigenvalues --    0.57836   0.58187   0.58680   0.59090   0.59411
 Alpha virt. eigenvalues --    0.59466   0.59801   0.59917   0.60579   0.60738
 Alpha virt. eigenvalues --    0.60914   0.61467   0.61841   0.62240   0.62403
 Alpha virt. eigenvalues --    0.62896   0.63036   0.63233   0.63496   0.63743
 Alpha virt. eigenvalues --    0.63960   0.64826   0.65086   0.65159   0.65574
 Alpha virt. eigenvalues --    0.65858   0.66233   0.66362   0.66723   0.66806
 Alpha virt. eigenvalues --    0.66971   0.67428   0.67697   0.68301   0.68680
 Alpha virt. eigenvalues --    0.68754   0.69171   0.69381   0.69475   0.70068
 Alpha virt. eigenvalues --    0.70306   0.70420   0.70623   0.70678   0.71480
 Alpha virt. eigenvalues --    0.71716   0.72052   0.72095   0.72728   0.72920
 Alpha virt. eigenvalues --    0.73068   0.73274   0.73371   0.73643   0.73792
 Alpha virt. eigenvalues --    0.74182   0.74746   0.74843   0.75281   0.75773
 Alpha virt. eigenvalues --    0.75837   0.76350   0.76714   0.77023   0.77320
 Alpha virt. eigenvalues --    0.77582   0.78387   0.78550   0.79224   0.79447
 Alpha virt. eigenvalues --    0.79822   0.79861   0.80657   0.80810   0.81105
 Alpha virt. eigenvalues --    0.81643   0.81897   0.82236   0.82726   0.83105
 Alpha virt. eigenvalues --    0.83273   0.83812   0.83925   0.84427   0.84709
 Alpha virt. eigenvalues --    0.84828   0.84902   0.85521   0.85831   0.86204
 Alpha virt. eigenvalues --    0.86431   0.86931   0.87566   0.87759   0.87984
 Alpha virt. eigenvalues --    0.88011   0.88400   0.88628   0.89068   0.89628
 Alpha virt. eigenvalues --    0.89744   0.89974   0.90575   0.91697   0.92061
 Alpha virt. eigenvalues --    0.92383   0.92805   0.92964   0.93466   0.93867
 Alpha virt. eigenvalues --    0.94037   0.94613   0.95143   0.95546   0.95649
 Alpha virt. eigenvalues --    0.96083   0.96723   0.96944   0.97560   0.97614
 Alpha virt. eigenvalues --    0.97887   0.98659   0.98788   0.98994   0.99723
 Alpha virt. eigenvalues --    1.00091   1.00392   1.00717   1.01144   1.01701
 Alpha virt. eigenvalues --    1.01948   1.02160   1.02395   1.02560   1.02941
 Alpha virt. eigenvalues --    1.03056   1.03384   1.03944   1.04234   1.04697
 Alpha virt. eigenvalues --    1.04962   1.05157   1.05748   1.06287   1.06471
 Alpha virt. eigenvalues --    1.06725   1.07133   1.07616   1.07851   1.08540
 Alpha virt. eigenvalues --    1.08824   1.09114   1.09356   1.10106   1.10131
 Alpha virt. eigenvalues --    1.10411   1.10928   1.11006   1.11447   1.11969
 Alpha virt. eigenvalues --    1.12169   1.12547   1.12670   1.13012   1.13590
 Alpha virt. eigenvalues --    1.13643   1.14025   1.14902   1.14996   1.15311
 Alpha virt. eigenvalues --    1.15988   1.16428   1.16776   1.17277   1.17738
 Alpha virt. eigenvalues --    1.18306   1.18736   1.19668   1.19898   1.20368
 Alpha virt. eigenvalues --    1.20801   1.20986   1.21552   1.21989   1.22128
 Alpha virt. eigenvalues --    1.22300   1.22593   1.22739   1.23389   1.23952
 Alpha virt. eigenvalues --    1.24418   1.24565   1.24894   1.25478   1.25718
 Alpha virt. eigenvalues --    1.26229   1.26798   1.26881   1.27395   1.27578
 Alpha virt. eigenvalues --    1.27909   1.28672   1.29193   1.29549   1.29774
 Alpha virt. eigenvalues --    1.30128   1.30431   1.30967   1.31432   1.32183
 Alpha virt. eigenvalues --    1.32376   1.32783   1.33274   1.33450   1.34287
 Alpha virt. eigenvalues --    1.34855   1.35077   1.35607   1.35896   1.36401
 Alpha virt. eigenvalues --    1.37145   1.37842   1.38222   1.38628   1.39040
 Alpha virt. eigenvalues --    1.39465   1.39566   1.39729   1.40093   1.40659
 Alpha virt. eigenvalues --    1.40745   1.41142   1.41549   1.41811   1.42069
 Alpha virt. eigenvalues --    1.42256   1.42847   1.43172   1.43585   1.43940
 Alpha virt. eigenvalues --    1.44560   1.44835   1.44860   1.45112   1.45334
 Alpha virt. eigenvalues --    1.45613   1.46049   1.46216   1.46716   1.46937
 Alpha virt. eigenvalues --    1.47411   1.47442   1.47620   1.48170   1.48520
 Alpha virt. eigenvalues --    1.49691   1.49949   1.50377   1.50601   1.51321
 Alpha virt. eigenvalues --    1.51757   1.52009   1.52669   1.52713   1.53182
 Alpha virt. eigenvalues --    1.53645   1.53935   1.54241   1.54538   1.54658
 Alpha virt. eigenvalues --    1.55078   1.55353   1.56191   1.56774   1.57072
 Alpha virt. eigenvalues --    1.57937   1.58265   1.58304   1.58397   1.58649
 Alpha virt. eigenvalues --    1.59548   1.60044   1.60108   1.60437   1.60703
 Alpha virt. eigenvalues --    1.61066   1.61481   1.61841   1.62221   1.62666
 Alpha virt. eigenvalues --    1.63614   1.63664   1.64645   1.65304   1.65673
 Alpha virt. eigenvalues --    1.66296   1.66543   1.66876   1.67759   1.68112
 Alpha virt. eigenvalues --    1.68215   1.68825   1.69118   1.70034   1.70205
 Alpha virt. eigenvalues --    1.70301   1.70597   1.71555   1.71598   1.71889
 Alpha virt. eigenvalues --    1.72387   1.72731   1.73029   1.73296   1.73649
 Alpha virt. eigenvalues --    1.74219   1.74597   1.74996   1.75520   1.76343
 Alpha virt. eigenvalues --    1.77545   1.78061   1.78374   1.78466   1.79304
 Alpha virt. eigenvalues --    1.79854   1.80658   1.81385   1.81952   1.82191
 Alpha virt. eigenvalues --    1.83338   1.83437   1.83946   1.84067   1.84660
 Alpha virt. eigenvalues --    1.84964   1.85545   1.86248   1.87071   1.87260
 Alpha virt. eigenvalues --    1.87717   1.88438   1.88667   1.88871   1.89309
 Alpha virt. eigenvalues --    1.89479   1.89890   1.90279   1.90829   1.90875
 Alpha virt. eigenvalues --    1.91066   1.91712   1.92132   1.92621   1.92845
 Alpha virt. eigenvalues --    1.93166   1.93956   1.94314   1.94462   1.95160
 Alpha virt. eigenvalues --    1.95720   1.95927   1.96190   1.97348   1.97634
 Alpha virt. eigenvalues --    1.97989   1.98385   1.98496   1.99211   2.00565
 Alpha virt. eigenvalues --    2.01172   2.01305   2.01819   2.02095   2.02442
 Alpha virt. eigenvalues --    2.02792   2.03365   2.03431   2.03943   2.04528
 Alpha virt. eigenvalues --    2.05085   2.05982   2.06071   2.07165   2.08044
 Alpha virt. eigenvalues --    2.08062   2.09240   2.09539   2.10291   2.11013
 Alpha virt. eigenvalues --    2.11930   2.12533   2.12763   2.13176   2.13452
 Alpha virt. eigenvalues --    2.13558   2.14070   2.14265   2.14893   2.15129
 Alpha virt. eigenvalues --    2.15181   2.15931   2.16355   2.16761   2.17007
 Alpha virt. eigenvalues --    2.18100   2.18837   2.19209   2.19700   2.20116
 Alpha virt. eigenvalues --    2.20555   2.20803   2.21639   2.21734   2.22207
 Alpha virt. eigenvalues --    2.22498   2.23467   2.24876   2.24900   2.25038
 Alpha virt. eigenvalues --    2.25401   2.25726   2.26267   2.26365   2.26814
 Alpha virt. eigenvalues --    2.27498   2.27850   2.28403   2.28540   2.28895
 Alpha virt. eigenvalues --    2.29431   2.29487   2.31020   2.31296   2.31623
 Alpha virt. eigenvalues --    2.31956   2.32912   2.33192   2.34196   2.34318
 Alpha virt. eigenvalues --    2.35216   2.35567   2.36448   2.36494   2.36654
 Alpha virt. eigenvalues --    2.37189   2.37762   2.37957   2.38690   2.40068
 Alpha virt. eigenvalues --    2.40232   2.41071   2.41420   2.42100   2.42325
 Alpha virt. eigenvalues --    2.42715   2.43396   2.43470   2.44033   2.44358
 Alpha virt. eigenvalues --    2.44751   2.45501   2.46561   2.47321   2.48330
 Alpha virt. eigenvalues --    2.48388   2.48556   2.48653   2.49771   2.51044
 Alpha virt. eigenvalues --    2.52280   2.52919   2.54009   2.55040   2.55561
 Alpha virt. eigenvalues --    2.56452   2.57312   2.57579   2.57994   2.58222
 Alpha virt. eigenvalues --    2.58418   2.59739   2.60150   2.60188   2.61295
 Alpha virt. eigenvalues --    2.61453   2.63437   2.63751   2.63874   2.64883
 Alpha virt. eigenvalues --    2.65609   2.66089   2.66490   2.66988   2.67279
 Alpha virt. eigenvalues --    2.68166   2.68217   2.68957   2.69640   2.70263
 Alpha virt. eigenvalues --    2.70454   2.71557   2.71656   2.71909   2.72149
 Alpha virt. eigenvalues --    2.72696   2.73674   2.73827   2.73967   2.74413
 Alpha virt. eigenvalues --    2.75422   2.75710   2.76336   2.76438   2.77203
 Alpha virt. eigenvalues --    2.77487   2.77559   2.77659   2.78422   2.79305
 Alpha virt. eigenvalues --    2.79779   2.80127   2.80276   2.80493   2.80704
 Alpha virt. eigenvalues --    2.80877   2.81488   2.81634   2.81808   2.82087
 Alpha virt. eigenvalues --    2.82919   2.83207   2.83387   2.83594   2.83996
 Alpha virt. eigenvalues --    2.84324   2.84672   2.84754   2.86023   2.86600
 Alpha virt. eigenvalues --    2.86767   2.87275   2.87922   2.88385   2.88546
 Alpha virt. eigenvalues --    2.88761   2.89060   2.89490   2.89515   2.90034
 Alpha virt. eigenvalues --    2.90478   2.90846   2.90972   2.91475   2.92096
 Alpha virt. eigenvalues --    2.92410   2.92705   2.92933   2.93476   2.93706
 Alpha virt. eigenvalues --    2.94157   2.94688   2.94984   2.95254   2.95732
 Alpha virt. eigenvalues --    2.96474   2.96657   2.96829   2.97053   2.97193
 Alpha virt. eigenvalues --    2.97464   2.98155   2.98520   2.98919   2.99300
 Alpha virt. eigenvalues --    2.99774   3.00255   3.00411   3.00860   3.01094
 Alpha virt. eigenvalues --    3.01407   3.01684   3.02062   3.02179   3.02424
 Alpha virt. eigenvalues --    3.02646   3.02962   3.03727   3.03888   3.04227
 Alpha virt. eigenvalues --    3.04435   3.04844   3.05286   3.05502   3.05519
 Alpha virt. eigenvalues --    3.05896   3.06353   3.06636   3.07280   3.07596
 Alpha virt. eigenvalues --    3.07639   3.08577   3.08912   3.09063   3.09491
 Alpha virt. eigenvalues --    3.09854   3.10158   3.10346   3.10683   3.10921
 Alpha virt. eigenvalues --    3.11402   3.11525   3.11792   3.11910   3.12365
 Alpha virt. eigenvalues --    3.12552   3.12746   3.13073   3.13630   3.13871
 Alpha virt. eigenvalues --    3.14192   3.14547   3.14752   3.15359   3.15523
 Alpha virt. eigenvalues --    3.16053   3.16422   3.16916   3.16939   3.17651
 Alpha virt. eigenvalues --    3.17778   3.18062   3.18415   3.18738   3.18910
 Alpha virt. eigenvalues --    3.19039   3.19642   3.19889   3.20405   3.20640
 Alpha virt. eigenvalues --    3.21218   3.21575   3.21753   3.21955   3.22359
 Alpha virt. eigenvalues --    3.22577   3.22997   3.23512   3.23824   3.24325
 Alpha virt. eigenvalues --    3.24627   3.25198   3.25350   3.25954   3.26652
 Alpha virt. eigenvalues --    3.26738   3.27185   3.27483   3.27555   3.27803
 Alpha virt. eigenvalues --    3.28432   3.28733   3.29260   3.29321   3.29418
 Alpha virt. eigenvalues --    3.29819   3.30206   3.30370   3.30794   3.31202
 Alpha virt. eigenvalues --    3.31772   3.31969   3.32354   3.32782   3.32960
 Alpha virt. eigenvalues --    3.33565   3.33885   3.34113   3.34182   3.34487
 Alpha virt. eigenvalues --    3.34725   3.34802   3.35619   3.36042   3.36359
 Alpha virt. eigenvalues --    3.36579   3.37007   3.37473   3.37668   3.37825
 Alpha virt. eigenvalues --    3.38429   3.38577   3.38875   3.39449   3.39690
 Alpha virt. eigenvalues --    3.40124   3.40757   3.40959   3.41405   3.41809
 Alpha virt. eigenvalues --    3.41874   3.42524   3.42880   3.44242   3.44487
 Alpha virt. eigenvalues --    3.44896   3.44961   3.45569   3.45746   3.46284
 Alpha virt. eigenvalues --    3.46556   3.46653   3.46818   3.46903   3.47391
 Alpha virt. eigenvalues --    3.47772   3.48001   3.48434   3.48922   3.49269
 Alpha virt. eigenvalues --    3.49766   3.50107   3.50507   3.50842   3.51642
 Alpha virt. eigenvalues --    3.51718   3.52160   3.52846   3.52952   3.53607
 Alpha virt. eigenvalues --    3.53814   3.54276   3.55259   3.55685   3.55980
 Alpha virt. eigenvalues --    3.56521   3.56682   3.56961   3.57401   3.57905
 Alpha virt. eigenvalues --    3.58034   3.58866   3.59534   3.59976   3.60429
 Alpha virt. eigenvalues --    3.60869   3.61487   3.61615   3.61792   3.62699
 Alpha virt. eigenvalues --    3.63070   3.63613   3.63887   3.64370   3.64838
 Alpha virt. eigenvalues --    3.65632   3.65699   3.66241   3.67240   3.67278
 Alpha virt. eigenvalues --    3.67610   3.67892   3.68358   3.68581   3.69086
 Alpha virt. eigenvalues --    3.69391   3.70082   3.70535   3.71038   3.71389
 Alpha virt. eigenvalues --    3.71518   3.72561   3.73057   3.73352   3.73993
 Alpha virt. eigenvalues --    3.74281   3.74587   3.75160   3.75510   3.76420
 Alpha virt. eigenvalues --    3.76542   3.77079   3.77158   3.77704   3.78047
 Alpha virt. eigenvalues --    3.78665   3.79058   3.79758   3.80146   3.80517
 Alpha virt. eigenvalues --    3.80689   3.81301   3.81510   3.82107   3.82350
 Alpha virt. eigenvalues --    3.82697   3.83187   3.83742   3.84470   3.84704
 Alpha virt. eigenvalues --    3.85410   3.85785   3.86230   3.86816   3.87555
 Alpha virt. eigenvalues --    3.87664   3.88143   3.88736   3.89218   3.89665
 Alpha virt. eigenvalues --    3.90189   3.90516   3.90562   3.90773   3.91581
 Alpha virt. eigenvalues --    3.91923   3.92329   3.93325   3.94180   3.94694
 Alpha virt. eigenvalues --    3.95184   3.95436   3.95605   3.95682   3.96104
 Alpha virt. eigenvalues --    3.96410   3.96644   3.97118   3.97282   3.97494
 Alpha virt. eigenvalues --    3.98069   3.98545   3.99365   3.99775   4.00000
 Alpha virt. eigenvalues --    4.00769   4.01962   4.02566   4.02927   4.03211
 Alpha virt. eigenvalues --    4.03627   4.04324   4.04870   4.05396   4.05649
 Alpha virt. eigenvalues --    4.05911   4.06385   4.06676   4.07107   4.07207
 Alpha virt. eigenvalues --    4.07695   4.08102   4.08325   4.08738   4.08972
 Alpha virt. eigenvalues --    4.09148   4.09477   4.10067   4.10252   4.10687
 Alpha virt. eigenvalues --    4.11337   4.12128   4.12609   4.12907   4.13173
 Alpha virt. eigenvalues --    4.13447   4.13808   4.14374   4.15259   4.16216
 Alpha virt. eigenvalues --    4.16418   4.16885   4.17456   4.18076   4.18703
 Alpha virt. eigenvalues --    4.18874   4.19100   4.19432   4.19811   4.20227
 Alpha virt. eigenvalues --    4.20411   4.20632   4.21082   4.21377   4.21876
 Alpha virt. eigenvalues --    4.22592   4.22810   4.23340   4.23458   4.23982
 Alpha virt. eigenvalues --    4.24100   4.24792   4.25569   4.25867   4.26724
 Alpha virt. eigenvalues --    4.27481   4.28189   4.28863   4.29234   4.29616
 Alpha virt. eigenvalues --    4.30084   4.31020   4.31345   4.31771   4.32518
 Alpha virt. eigenvalues --    4.32649   4.33478   4.34259   4.34377   4.35193
 Alpha virt. eigenvalues --    4.35974   4.37201   4.37934   4.38143   4.39946
 Alpha virt. eigenvalues --    4.40593   4.41262   4.42030   4.42294   4.43370
 Alpha virt. eigenvalues --    4.43609   4.44401   4.44789   4.45556   4.47015
 Alpha virt. eigenvalues --    4.47290   4.47858   4.48180   4.48437   4.48829
 Alpha virt. eigenvalues --    4.49548   4.49955   4.51048   4.51555   4.51846
 Alpha virt. eigenvalues --    4.51977   4.52206   4.53031   4.53701   4.54422
 Alpha virt. eigenvalues --    4.55445   4.56659   4.57208   4.57711   4.58162
 Alpha virt. eigenvalues --    4.58399   4.59714   4.60280   4.60742   4.61057
 Alpha virt. eigenvalues --    4.62686   4.62964   4.64656   4.65007   4.65135
 Alpha virt. eigenvalues --    4.65348   4.67115   4.67448   4.67588   4.68675
 Alpha virt. eigenvalues --    4.69624   4.69924   4.70344   4.70404   4.70997
 Alpha virt. eigenvalues --    4.71392   4.71638   4.71851   4.72515   4.72783
 Alpha virt. eigenvalues --    4.74360   4.75365   4.76065   4.76453   4.78864
 Alpha virt. eigenvalues --    4.80023   4.80364   4.81605   4.83268   4.84015
[...]
    36   Atom        0.002759     -0.007346     -0.000470
    37   Atom       -0.000156      0.009739      0.000162
    38   Atom        0.001121      0.001115      0.001616
    39   Atom        0.009323     -0.000473     -0.002627
    40   Atom       -0.002372      0.001505      0.003269
    41   Atom       -0.000264     -0.000210      0.000114
    42   Atom       -0.000253     -0.000073      0.000034
    43   Atom       -0.000352     -0.000071      0.000114
    44   Atom       -0.000623     -0.000097      0.000267
    45   Atom       -0.000703     -0.000498      0.002160
    46   Atom        0.009169     -0.001315     -0.000229
    47   Atom       -0.000269      0.000546      0.003404
    48   Atom        0.000125      0.000161      0.000469
    49   Atom        0.000071      0.000006      0.000461
    50   Atom        0.000020     -0.000744      0.003366
    51   Atom       -0.007931      0.002012     -0.000508
    52   Atom        0.000719      0.000469      0.002203
    53   Atom        0.000606      0.000088      0.000298
    54   Atom        0.000232     -0.000222     -0.000070
    55   Atom        0.000188     -0.000078     -0.000027
    56   Atom        0.000108     -0.000129      0.000026
    57   Atom        0.000482     -0.000208      0.000038
    58   Atom        0.000135     -0.001351      0.000881
    59   Atom       -0.000073      0.001374      0.000905
    60   Atom       -0.000420      0.000219      0.000054
 --------------------------------------------------------


 ---------------------------------------------------------------------------------
              Anisotropic Spin Dipole Couplings in Principal Axis System
 ---------------------------------------------------------------------------------

       Atom             a.u.   MegaHertz   Gauss  10(-4) cm-1        Axes

              Baa    -0.0003    -0.045    -0.016    -0.015  0.2911  0.7519 -0.5915
     1 C(13)  Bbb    -0.0002    -0.027    -0.010    -0.009  0.5027  0.4058  0.7633
              Bcc     0.0005     0.072     0.026     0.024  0.8140 -0.5195 -0.2598
 
              Baa    -0.0069     0.498     0.178     0.166  0.8486  0.0052  0.5290
     2 O(17)  Bbb    -0.0059     0.423     0.151     0.141 -0.4221  0.6093  0.6712
              Bcc     0.0127    -0.921    -0.329    -0.307  0.3188  0.7929 -0.5193
 
              Baa    -0.0067    -0.904    -0.322    -0.301  0.1755  0.5546  0.8134
     3 C(13)  Bbb    -0.0051    -0.690    -0.246    -0.230  0.9470 -0.3209  0.0145
              Bcc     0.0119     1.594     0.569     0.532  0.2691  0.7678 -0.5815
 
              Baa    -0.0051    -0.682    -0.243    -0.227  0.3696  0.7223 -0.5845
     4 C(13)  Bbb     0.0008     0.103     0.037     0.034  0.2802  0.5131  0.8113
              Bcc     0.0043     0.579     0.207     0.193  0.8859 -0.4636 -0.0128
 
              Baa    -0.0095    -1.279    -0.457    -0.427  0.5143  0.3051  0.8015
     5 C(13)  Bbb    -0.0061    -0.818    -0.292    -0.273  0.8456 -0.0247 -0.5332
              Bcc     0.0156     2.098     0.749     0.700 -0.1429  0.9520 -0.2707
 
              Baa    -0.0112    -1.506    -0.537    -0.502  0.2336  0.7584 -0.6085
     6 C(13)  Bbb     0.0041     0.551     0.197     0.184  0.0909  0.6060  0.7903
              Bcc     0.0071     0.955     0.341     0.318  0.9681 -0.2399  0.0726
 
              Baa    -0.0905   -12.143    -4.333    -4.050 -0.2215  0.9751 -0.0142
     7 C(13)  Bbb    -0.0878   -11.778    -4.203    -3.929  0.9746  0.2219  0.0313
              Bcc     0.1783    23.921     8.536     7.979 -0.0337  0.0069  0.9994
 
              Baa    -0.0290    -3.889    -1.388    -1.297 -0.0241  0.0745  0.9969
     8 C(13)  Bbb     0.0136     1.818     0.649     0.607  0.9773 -0.2083  0.0392
              Bcc     0.0154     2.070     0.739     0.691  0.2106  0.9752 -0.0678
 
              Baa    -0.0132    -0.691    -0.247    -0.231  0.0108 -0.0638  0.9979
     9 Cl(35) Bbb     0.0011     0.059     0.021     0.020  0.9710  0.2390  0.0048
              Bcc     0.0121     0.633     0.226     0.211 -0.2388  0.9689  0.0645
 
              Baa    -0.0935   -12.544    -4.476    -4.184  0.9262 -0.3771  0.0004
    10 C(13)  Bbb    -0.0911   -12.220    -4.360    -4.076  0.3767  0.9251 -0.0480
              Bcc     0.1845    24.763     8.836     8.260  0.0178  0.0446  0.9988
 
              Baa    -0.0826   -11.080    -3.954    -3.696 -0.0339  0.0301  0.9990
    11 C(13)  Bbb     0.0342     4.586     1.637     1.530  0.8288  0.5594  0.0113
              Bcc     0.0484     6.494     2.317     2.166 -0.5585  0.8284 -0.0439
 
              Baa    -0.2659   -35.683   -12.733   -11.903 -0.0311  0.9983 -0.0484
    12 C(13)  Bbb    -0.2632   -35.324   -12.604   -11.783  0.9991  0.0325  0.0276
              Bcc     0.5292    71.007    25.337    23.685 -0.0291  0.0475  0.9984
 
              Baa    -0.0359    -4.815    -1.718    -1.606 -0.0034 -0.5269  0.8499
    13 C(13)  Bbb     0.0163     2.190     0.781     0.730 -0.0583  0.8486  0.5258
              Bcc     0.0196     2.626     0.937     0.876  0.9983  0.0478  0.0336
 
              Baa    -0.0310    -4.161    -1.485    -1.388 -0.5090  0.4266  0.7477
    14 C(13)  Bbb    -0.0235    -3.151    -1.124    -1.051  0.8396  0.0542  0.5406
              Bcc     0.0545     7.312     2.609     2.439  0.1901  0.9028 -0.3857
 
              Baa    -0.0208    -2.792    -0.996    -0.931  0.0874  0.7383 -0.6688
    15 C(13)  Bbb     0.0072     0.963     0.344     0.321 -0.1081  0.6744  0.7304
              Bcc     0.0136     1.829     0.653     0.610  0.9903  0.0085  0.1388
 
              Baa    -0.0347    -4.657    -1.662    -1.554 -0.0462  0.7432  0.6675
    16 C(13)  Bbb    -0.0302    -4.051    -1.446    -1.351  0.9989  0.0354  0.0297
              Bcc     0.0649     8.709     3.107     2.905  0.0015 -0.6682  0.7440
 
              Baa    -0.0083    -1.116    -0.398    -0.372 -0.0064  0.7409 -0.6715
    17 C(13)  Bbb    -0.0020    -0.269    -0.096    -0.090 -0.0464  0.6706  0.7404
              Bcc     0.0103     1.385     0.494     0.462  0.9989  0.0359  0.0301
 
              Baa    -0.0276    -1.063    -0.379    -0.355  0.9989  0.0362  0.0304
    18 N(14)  Bbb    -0.0216    -0.831    -0.297    -0.277 -0.0470  0.6894  0.7229
              Bcc     0.0491     1.895     0.676     0.632 -0.0052  0.7235 -0.6903
 
              Baa    -0.0209    -2.805    -1.001    -0.936 -0.0982  0.7313 -0.6749
    19 C(13)  Bbb     0.0072     0.972     0.347     0.324  0.0157  0.6793  0.7337
              Bcc     0.0137     1.833     0.654     0.611  0.9950  0.0615 -0.0782
 
              Baa    -0.0310    -4.165    -1.486    -1.389  0.4310  0.4620  0.7751
    20 C(13)  Bbb    -0.0235    -3.151    -1.124    -1.051  0.8723  0.0064 -0.4888
              Bcc     0.0545     7.316     2.611     2.441 -0.2308  0.8869 -0.4003
 
              Baa    -0.0823   -11.050    -3.943    -3.686 -0.0182  0.0320  0.9993
    21 C(13)  Bbb     0.0341     4.577     1.633     1.527  0.8669 -0.4974  0.0317
              Bcc     0.0482     6.473     2.310     2.159  0.4981  0.8669 -0.0186
 
              Baa    -0.0936   -12.561    -4.482    -4.190  0.8935  0.4470  0.0429
    22 C(13)  Bbb    -0.0912   -12.235    -4.366    -4.081 -0.4436  0.8935 -0.0702
              Bcc     0.1848    24.796     8.848     8.271 -0.0697  0.0437  0.9966
 
              Baa    -0.0285    -3.828    -1.366    -1.277 -0.0233  0.0759  0.9968
    23 C(13)  Bbb     0.0133     1.787     0.638     0.596  0.9608  0.2773  0.0013
              Bcc     0.0152     2.040     0.728     0.681 -0.2763  0.9578 -0.0794
 
              Baa    -0.0130    -0.680    -0.242    -0.227 -0.0223 -0.0571  0.9981
    24 Cl(35) Bbb     0.0011     0.056     0.020     0.019  0.9868 -0.1617  0.0128
              Bcc     0.0119     0.623     0.222     0.208  0.1606  0.9852  0.0600
 
              Baa    -0.0906   -12.153    -4.336    -4.054  0.1589  0.9872 -0.0100
    25 C(13)  Bbb    -0.0878   -11.781    -4.204    -3.930  0.9872 -0.1588  0.0134
              Bcc     0.1784    23.933     8.540     7.983 -0.0116  0.0120  0.9999
 
              Baa    -0.0109    -1.462    -0.522    -0.488 -0.2593  0.7477 -0.6113
    26 C(13)  Bbb     0.0039     0.528     0.188     0.176 -0.1308  0.6000  0.7893
              Bcc     0.0070     0.934     0.333     0.312  0.9569  0.2846 -0.0578
 
              Baa    -0.0084    -1.125    -0.401    -0.375 -0.5741  0.2535  0.7786
    27 C(13)  Bbb    -0.0052    -0.693    -0.247    -0.231  0.8072  0.0155  0.5901
              Bcc     0.0136     1.818     0.649     0.607  0.1375  0.9672 -0.2135
 
              Baa    -0.0052    -0.696    -0.249    -0.232 -0.3964  0.7029 -0.5906
    28 C(13)  Bbb     0.0008     0.112     0.040     0.037 -0.3498  0.4791  0.8051
              Bcc     0.0044     0.584     0.208     0.195  0.8488  0.5257  0.0559
 
              Baa    -0.0066    -0.881    -0.315    -0.294 -0.2582  0.5308  0.8073
    29 C(13)  Bbb    -0.0050    -0.666    -0.238    -0.222  0.9174  0.3966  0.0326
              Bcc     0.0115     1.547     0.552     0.516 -0.3028  0.7490 -0.5893
 
              Baa    -0.0069     0.502     0.179     0.167  0.6077  0.6138  0.5039
    30 O(17)  Bbb    -0.0060     0.434     0.155     0.145  0.7235 -0.1664 -0.6700
              Bcc     0.0129    -0.937    -0.334    -0.312 -0.3274  0.7717 -0.5452
 
              Baa    -0.0003    -0.046    -0.016    -0.015 -0.3769  0.6577 -0.6521
    31 C(13)  Bbb    -0.0002    -0.023    -0.008    -0.008 -0.0057  0.7024  0.7117
              Bcc     0.0005     0.069     0.025     0.023  0.9262  0.2720 -0.2610
 
              Baa    -0.0056    -0.753    -0.269    -0.251 -0.3135  0.7543 -0.5769
    32 C(13)  Bbb     0.0015     0.202     0.072     0.067 -0.1536  0.5592  0.8147
              Bcc     0.0041     0.551     0.197     0.184  0.9371  0.3440 -0.0594
 
              Baa    -0.0090    -1.203    -0.429    -0.401  0.2457  0.4422  0.8626
    33 C(13)  Bbb    -0.0057    -0.765    -0.273    -0.255  0.6850  0.5504 -0.4773
              Bcc     0.0147     1.968     0.702     0.656 -0.6858  0.7082 -0.1677
 
              Baa    -0.0521    -2.009    -0.717    -0.670  0.0474  0.9988 -0.0141
    34 N(14)  Bbb    -0.0427    -1.648    -0.588    -0.550  0.9974 -0.0466  0.0541
              Bcc     0.0948     3.657     1.305     1.220 -0.0534  0.0166  0.9984
 
              Baa    -0.0027    -0.455    -0.162    -0.152 -0.0201  0.0067  0.9998
    35 B(11)  Bbb     0.0013     0.226     0.081     0.075  0.1100  0.9939 -0.0044
              Bcc     0.0013     0.229     0.082     0.076  0.9937 -0.1099  0.0207
 
              Baa    -0.0105    -5.296    -1.890    -1.767 -0.1895  0.8920 -0.4103
    36 F(19)  Bbb    -0.0100    -5.000    -1.784    -1.668  0.1846  0.4428  0.8774
              Bcc     0.0205    10.296     3.674     3.434  0.9644  0.0905 -0.2486
 
              Baa    -0.0109    -5.476    -1.954    -1.827  0.1063  0.9488 -0.2973
    37 F(19)  Bbb    -0.0102    -5.133    -1.832    -1.712 -0.3105  0.3157  0.8966
              Bcc     0.0211    10.609     3.786     3.539  0.9446 -0.0029  0.3282
 
              Baa    -0.0522    -2.013    -0.718    -0.671 -0.1193  0.9928 -0.0100
    38 N(14)  Bbb    -0.0428    -1.652    -0.590    -0.551  0.9928  0.1192 -0.0094
              Bcc     0.0950     3.665     1.308     1.223  0.0082  0.0111  0.9999
 
              Baa    -0.0082    -1.094    -0.390    -0.365 -0.3243  0.4184  0.8484
    39 C(13)  Bbb    -0.0050    -0.669    -0.239    -0.223  0.6751 -0.5258  0.5174
              Bcc     0.0131     1.763     0.629     0.588  0.6626  0.7405 -0.1119
 
              Baa    -0.0060    -0.799    -0.285    -0.266  0.2871  0.7735 -0.5650
    40 C(13)  Bbb     0.0017     0.228     0.081     0.076  0.0722  0.5707  0.8180
              Bcc     0.0043     0.571     0.204     0.190  0.9552 -0.2757  0.1080
 
              Baa    -0.0003    -0.141    -0.050    -0.047  0.4219  0.9011 -0.0997
    41 H(1)   Bbb    -0.0002    -0.115    -0.041    -0.038  0.3742 -0.0729  0.9245
              Bcc     0.0005     0.257     0.092     0.086  0.8258 -0.4274 -0.3679
 
              Baa    -0.0002    -0.113    -0.040    -0.038  0.2803  0.2498  0.9268
    42 H(1)   Bbb    -0.0002    -0.104    -0.037    -0.035  0.4137  0.8399 -0.3515
              Bcc     0.0004     0.217     0.078     0.073  0.8662 -0.4819 -0.1320
 
              Baa    -0.0003    -0.153    -0.055    -0.051 -0.2832 -0.5182  0.8070
    43 H(1)   Bbb    -0.0002    -0.112    -0.040    -0.037  0.6281  0.5356  0.5644
              Bcc     0.0005     0.265     0.094     0.088  0.7247 -0.6668 -0.1738
 
              Baa    -0.0006    -0.340    -0.121    -0.113  0.3961  0.7675 -0.5040
    44 H(1)   Bbb    -0.0002    -0.132    -0.047    -0.044  0.4203  0.3364  0.8427
              Bcc     0.0009     0.472     0.168     0.157  0.8164 -0.5456 -0.1893
 
              Baa    -0.0023    -1.204    -0.430    -0.402 -0.0328 -0.6495  0.7597
    45 H(1)   Bbb    -0.0002    -0.101    -0.036    -0.034  0.9373  0.2440  0.2490
              Bcc     0.0024     1.305     0.466     0.435 -0.3471  0.7202  0.6007
 
              Baa    -0.0108    -5.737    -2.047    -1.914 -0.4149  0.9089 -0.0430
    46 H(1)   Bbb    -0.0030    -1.590    -0.567    -0.530  0.0528  0.0712  0.9961
              Bcc     0.0137     7.327     2.614     2.444  0.9084  0.4110 -0.0775
 
              Baa    -0.0036    -1.929    -0.688    -0.644 -0.1590 -0.6174  0.7705
    47 H(1)   Bbb     0.0002     0.088     0.031     0.029  0.9865 -0.1309  0.0987
              Bcc     0.0035     1.841     0.657     0.614  0.0399  0.7757  0.6298
 
              Baa    -0.0015    -0.822    -0.293    -0.274 -0.0154 -0.5917  0.8060
    48 H(1)   Bbb    -0.0006    -0.306    -0.109    -0.102 -0.0732  0.8046  0.5893
              Bcc     0.0021     1.127     0.402     0.376  0.9972  0.0499  0.0557
 
              Baa    -0.0015    -0.820    -0.293    -0.274  0.0101 -0.5940  0.8044
    49 H(1)   Bbb    -0.0006    -0.306    -0.109    -0.102 -0.0226  0.8041  0.5940
              Bcc     0.0021     1.126     0.402     0.376  0.9997  0.0242  0.0053
 
              Baa    -0.0036    -1.925    -0.687    -0.642  0.1591 -0.6059  0.7795
    50 H(1)   Bbb     0.0001     0.079     0.028     0.026  0.9780  0.2043 -0.0408
              Bcc     0.0035     1.846     0.659     0.616 -0.1345  0.7689  0.6251
 
              Baa    -0.0108    -5.748    -2.051    -1.917  0.3509  0.9360 -0.0287
    51 H(1)   Bbb    -0.0030    -1.592    -0.568    -0.531 -0.1063  0.0703  0.9918
              Bcc     0.0138     7.340     2.619     2.449  0.9304 -0.3450  0.1241
 
              Baa    -0.0022    -1.182    -0.422    -0.394  0.0527 -0.6521  0.7563
    52 H(1)   Bbb    -0.0003    -0.173    -0.062    -0.058  0.9483 -0.2047 -0.2426
              Bcc     0.0025     1.355     0.484     0.452  0.3130  0.7300  0.6076
 
              Baa    -0.0006    -0.332    -0.118    -0.111 -0.4156  0.7383 -0.5312
    53 H(1)   Bbb    -0.0002    -0.113    -0.040    -0.038 -0.4786  0.3191  0.8180
              Bcc     0.0008     0.445     0.159     0.148  0.7734  0.5942  0.2208
 
              Baa    -0.0003    -0.140    -0.050    -0.047 -0.5181  0.7408 -0.4275
    54 H(1)   Bbb    -0.0002    -0.103    -0.037    -0.034  0.1194  0.5576  0.8215
              Bcc     0.0005     0.243     0.087     0.081  0.8469  0.3746 -0.3773
 
              Baa    -0.0002    -0.113    -0.040    -0.038  0.1602 -0.0378  0.9864
    55 H(1)   Bbb    -0.0002    -0.098    -0.035    -0.033 -0.3399  0.9360  0.0911
              Bcc     0.0004     0.211     0.075     0.070  0.9267  0.3499 -0.1371
 
              Baa    -0.0003    -0.156    -0.056    -0.052  0.2209 -0.3616  0.9058
    56 H(1)   Bbb    -0.0002    -0.086    -0.031    -0.029 -0.0863  0.9178  0.3875
              Bcc     0.0005     0.242     0.086     0.081  0.9715  0.1638 -0.1715
 
              Baa    -0.0006    -0.309    -0.110    -0.103 -0.3640  0.7157 -0.5960
    57 H(1)   Bbb    -0.0003    -0.185    -0.066    -0.062 -0.1173  0.5996  0.7917
              Bcc     0.0009     0.494     0.176     0.165  0.9240  0.3581 -0.1343
 
              Baa    -0.0018    -0.950    -0.339    -0.317  0.4305 -0.4931  0.7560
    58 H(1)   Bbb     0.0001     0.039     0.014     0.013  0.4376  0.8466  0.3030
              Bcc     0.0017     0.910     0.325     0.304  0.7894 -0.2004 -0.5803
 
              Baa    -0.0018    -0.936    -0.334    -0.312 -0.4300 -0.5108  0.7444
    59 H(1)   Bbb    -0.0000    -0.005    -0.002    -0.002 -0.4760  0.8289  0.2938
              Bcc     0.0018     0.941     0.336     0.314  0.7671  0.2281  0.5996
 
              Baa    -0.0006    -0.303    -0.108    -0.101  0.3425  0.7313 -0.5898
    60 H(1)   Bbb    -0.0003    -0.167    -0.059    -0.056  0.0783  0.6033  0.7936
              Bcc     0.0009     0.470     0.168     0.157  0.9362 -0.3180  0.1494
 

 ---------------------------------------------------------------------------------

 No NMR shielding tensors so no spin-rotation constants.
 Leave Link  601 at Thu Nov  6 17:25:44 2025, MaxMem= 30870077440 cpu:             145.8 elap:               2.6
 (Enter /public/software/gauss/g16/l9999.exe)
 1\1\GINC-CU015\SP\UM062X\def2TZVPP\C30H20B1Cl2F2N3O2(1-,2)\BAIDING\06-
 Nov-2025\0\\#p M062X/DEF2TZVPP scrf=(solvent=water) em=GD3\\Energy cal
 culation for M100033921_reduced\\-1,2\C,0,6.100934,-5.109855,-0.667401
 \O,0,5.582303,-4.211164,0.317362\C,0,4.266815,-3.835816,0.215502\C,0,3
 .394609,-4.267677,-0.789596\C,0,2.074096,-3.814038,-0.792945\C,0,1.590
 567,-2.93245,0.186429\C,0,0.170689,-2.530469,0.16573\C,0,-0.949256,-3.
 367193,0.153734\Cl,0,-0.920418,-5.115111,0.258567\C,0,-2.115576,-2.596
 91,0.110273\C,0,-1.694687,-1.254596,0.066729\C,0,-2.461856,-0.05178,0.
 004333\C,0,-3.931305,-0.104896,-0.037846\C,0,-4.60785,-0.981901,-0.917
 043\C,0,-5.992933,-1.035554,-0.964315\C,0,-6.75693,-0.206065,-0.122006
 \C,0,-8.18169,-0.257275,-0.164859\N,0,-9.348164,-0.299282,-0.200157\C,
 0,-6.105594,0.674091,0.76242\C,0,-4.719743,0.719716,0.797716\C,0,-1.78
 0885,1.203156,-0.022301\C,0,-2.293634,2.512128,-0.091256\C,0,-1.183997
 ,3.36331,-0.082706\Cl,0,-1.271822,5.108804,-0.194059\C,0,-0.008506,2.6
 08255,-0.03846\C,0,1.378758,3.110656,0.001154\C,0,1.757819,4.021958,1.
 006991\C,0,3.037219,4.560545,1.049237\C,0,3.982725,4.201544,0.077778\O
 ,0,5.218894,4.783055,0.201491\C,0,6.217206,4.447519,-0.766548\C,0,3.62
 842,3.30027,-0.932835\C,0,2.337661,2.769487,-0.964903\N,0,-0.39014,1.2
 75552,-0.013154\B,0,0.56209,0.057269,0.090525\F,0,1.42772,-0.007921,-1
 .018238\F,0,1.331866,0.182779,1.264159\N,0,-0.303552,-1.227842,0.12433
 8\C,0,2.485487,-2.517497,1.192532\C,0,3.80226,-2.957733,1.206187\H,0,6
 .047692,-4.675601,-1.671728\H,0,7.145405,-5.274305,-0.399484\H,0,5.567
 464,-6.066589,-0.654646\H,0,3.727613,-4.941873,-1.569189\H,0,1.410201,
 -4.146812,-1.584463\H,0,-3.130427,-2.961132,0.125279\H,0,-4.034871,-1.
 606607,-1.59243\H,0,-6.490888,-1.704817,-1.657893\H,0,-6.690463,1.3046
 33,1.423657\H,0,-4.234087,1.382499,1.5045\H,0,-3.329919,2.803151,-0.15
 69\H,0,1.040704,4.301261,1.772214\H,0,3.324142,5.256077,1.831645\H,0,5
 .908202,4.739431,-1.776203\H,0,7.107246,5.011115,-0.483739\H,0,6.44515
 7,3.376139,-0.749918\H,0,4.338957,3.013061,-1.698401\H,0,2.076402,2.07
 4229,-1.752308\H,0,2.144198,-1.839674,1.96418\H,0,4.487108,-2.636743,1
 .984948\\Version=ES64L-G16RevA.03\State=2-A\HF=-2615.1977176\S2=0.7710
 53\S2-1=0.\S2A=0.750368\RMSD=8.653e-09\Dipole=3.6455742,-0.6404591,-1.
 1338139\Quadrupole=-31.3003826,4.5125498,26.7878329,-6.9654055,-14.353
 8239,10.340075\PG=C01 [X(C30H20B1Cl2F2N3O2)]\\@


 THE FIRST AND LAST THING REQUIRED OF GENIUS IS THE LOVE OF TRUTH.

                          -- GOETHE
 Job cpu time:       0 days 20 hours 49 minutes 15.8 seconds.
 Elapsed time:       0 days  0 hours 19 minutes 47.4 seconds.
 File lengths (MBytes):  RWF=   2546 Int=      0 D2E=      0 Chk=    166 Scr=      1
 Normal termination of Gaussian 16 at Thu Nov  6 17:25:44 2025.
