 Entering Gaussian System, Link 0=g16
 Input=M100480310_sp.gjf
 Output=M100480310_sp.log
 Initial command:
 /public/software/gauss/g16/l1.exe "/public/home/baiding/1101_v2_sp/tmp_M100480310_sp_1575143/Gau-1477087.inp" -scrdir="/public/home/baiding/1101_v2_sp/tmp_M100480310_sp_1575143/"
 Entering Link 1 = /public/software/gauss/g16/l1.exe PID=   1477088.
  
 Copyright (c) 1988,1990,1992,1993,1995,1998,2003,2009,2016,
            Gaussian, Inc.  All Rights Reserved.
  
 This is part of the Gaussian(R) 16 program.  It is based on
 the Gaussian(R) 09 system (copyright 2009, Gaussian, Inc.),
 the Gaussian(R) 03 system (copyright 2003, Gaussian, Inc.),
 the Gaussian(R) 98 system (copyright 1998, Gaussian, Inc.),
 the Gaussian(R) 94 system (copyright 1995, Gaussian, Inc.),
 the Gaussian 92(TM) system (copyright 1992, Gaussian, Inc.),
 the Gaussian 90(TM) system (copyright 1990, Gaussian, Inc.),
 the Gaussian 88(TM) system (copyright 1988, Gaussian, Inc.),
 the Gaussian 86(TM) system (copyright 1986, Carnegie Mellon
 University), and the Gaussian 82(TM) system (copyright 1983,
 Carnegie Mellon University). Gaussian is a federally registered
 trademark of Gaussian, Inc.
  
 This software contains proprietary and confidential information,
 including trade secrets, belonging to Gaussian, Inc.
  
 This software is provided under written license and may be
 used, copied, transmitted, or stored only in accord with that
 written license.
  
 The following legend is applicable only to US Government
 contracts under FAR:
  
                    RESTRICTED RIGHTS LEGEND
  
 Use, reproduction and disclosure by the US Government is
 subject to restrictions as set forth in subparagraphs (a)
 and (c) of the Commercial Computer Software - Restricted
 Rights clause in FAR 52.227-19.
  
 Gaussian, Inc.
 340 Quinnipiac St., Bldg. 40, Wallingford CT 06492
  
  
 ---------------------------------------------------------------
 Warning -- This program may not be used in any manner that
 competes with the business of Gaussian, Inc. or will provide
 assistance to any competitor of Gaussian, Inc.  The licensee
 of this program is prohibited from giving any competitor of
 Gaussian, Inc. access to this program.  By using this program,
 the user acknowledges that Gaussian, Inc. is engaged in the
 business of creating and licensing software in the field of
 computational chemistry and represents and warrants to the
 licensee that it is not a competitor of Gaussian, Inc. and that
 it will not use this program in any manner prohibited above.
 ---------------------------------------------------------------
  

 Cite this work as:
 Gaussian 16, Revision A.03,
 M. J. Frisch, G. W. Trucks, H. B. Schlegel, G. E. Scuseria, 
 M. A. Robb, J. R. Cheeseman, G. Scalmani, V. Barone, 
 G. A. Petersson, H. Nakatsuji, X. Li, M. Caricato, A. V. Marenich, 
 J. Bloino, B. G. Janesko, R. Gomperts, B. Mennucci, H. P. Hratchian, 
 J. V. Ortiz, A. F. Izmaylov, J. L. Sonnenberg, D. Williams-Young, 
 F. Ding, F. Lipparini, F. Egidi, J. Goings, B. Peng, A. Petrone, 
 T. Henderson, D. Ranasinghe, V. G. Zakrzewski, J. Gao, N. Rega, 
 G. Zheng, W. Liang, M. Hada, M. Ehara, K. Toyota, R. Fukuda, 
 J. Hasegawa, M. Ishida, T. Nakajima, Y. Honda, O. Kitao, H. Nakai, 
 T. Vreven, K. Throssell, J. A. Montgomery, Jr., J. E. Peralta, 
 F. Ogliaro, M. J. Bearpark, J. J. Heyd, E. N. Brothers, K. N. Kudin, 
 V. N. Staroverov, T. A. Keith, R. Kobayashi, J. Normand, 
 K. Raghavachari, A. P. Rendell, J. C. Burant, S. S. Iyengar, 
 J. Tomasi, M. Cossi, J. M. Millam, M. Klene, C. Adamo, R. Cammi, 
 J. W. Ochterski, R. L. Martin, K. Morokuma, O. Farkas, 
 J. B. Foresman, and D. J. Fox, Gaussian, Inc., Wallingford CT, 2016.
 
 ******************************************
 Gaussian 16:  ES64L-G16RevA.03 25-Dec-2016
                 8-Nov-2025 
 ******************************************
 %nprocshared=64
 Will use up to   64 processors via shared memory.
 %mem=230GB
 %chk=M100480310_sp.chk
 ----------------------------------------------
 #p M062X/DEF2TZVPP scrf=(solvent=water) em=GD3
 ----------------------------------------------
 1/38=1,172=1/1;
 2/12=2,17=6,18=5,40=1/2;
 3/5=44,7=202,11=2,25=1,30=1,70=2201,72=1,74=-55,124=31/1,2,3;
 4//1;
 5/5=2,38=5,53=1/2;
 6/7=2,8=2,9=2,10=2,28=1/1;
 99/5=1,9=1/99;
 Leave Link    1 at Sat Nov  8 09:27:32 2025, MaxMem= 30870077440 cpu:              13.5 elap:               0.2
 (Enter /public/software/gauss/g16/l101.exe)
 ---------------------------------
 Energy calculation for M100480310
 ---------------------------------
 Symbolic Z-matrix:
 Charge =  1 Multiplicity = 1
 N                    -0.00002   4.57875   0.00009 
 C                    -0.00001   3.4134    0.00002 
 C                     0.        1.98207  -0.00002 
 C                    -1.22809   1.29313  -0.02715 
 C                    -2.50462   1.9175   -0.05383 
 C                    -3.66566   1.19461  -0.08025 
 C                    -3.60546  -0.2529   -0.05286 
 N                    -4.75038  -0.97267  -0.02969 
 C                    -6.08659  -0.3648    0.0926 
 C                    -6.03767   1.04905   0.64965 
 C                    -5.01286   1.86971  -0.13273 
 C                    -4.75985  -2.44328  -0.08378 
 C                    -3.50413  -3.0024   -0.73218 
 C                    -2.25966  -2.42126  -0.06087 
 C                    -2.33771  -0.91307  -0.0482 
 C                    -1.19922  -0.13217  -0.02928 
 O                     0.00001  -0.79254   0.00005 
 C                     1.19924  -0.13216   0.02931 
 C                     2.33772  -0.91306   0.04824 
 C                     3.60547  -0.2529    0.05284 
 N                     4.7504   -0.97264   0.02986 
 C                     6.08662  -0.36479  -0.09276 
 C                     6.0376    1.04907  -0.64978 
 C                     5.01287   1.86969   0.13275 
 C                     4.75982  -2.44326   0.08367 
 C                     3.50419  -3.00242   0.73218 
 C                     2.25964  -2.42126   0.06101 
 C                     3.66565   1.19461   0.08025 
 C                     2.50462   1.91751   0.05383 
 C                     1.2281    1.29314   0.02714 
 H                    -2.55571   3.00206  -0.05826 
 H                    -6.56633  -0.37437  -0.89505 
 H                    -6.67621  -1.01663   0.74429 
 H                    -7.035     1.49113   0.57538 
 H                    -5.76418   1.02208   1.71053 
 H                    -5.34139   1.95057  -1.1783 
 H                    -4.93149   2.8885    0.2559 
 H                    -4.87731  -2.83232   0.93653 
 H                    -5.64988  -2.73825  -0.64731 
 H                    -3.5173   -4.09234  -0.64648 
 H                    -3.50049  -2.75446  -1.79957 
 H                    -2.18112  -2.8005    0.96703 
 H                    -1.35585  -2.74354  -0.58358 
 H                     6.56659  -0.37441   0.89478 
 H                     6.67605  -1.01664  -0.74461 
 H                     7.03493   1.49116  -0.57565 
 H                     5.76396   1.0221   -1.71063 
 H                     5.34147   1.95042   1.1783 
 H                     4.93151   2.88852  -0.25578 
 H                     4.87708  -2.8321   -0.93675 
 H                     5.64994  -2.73837   0.64698 
 H                     3.51734  -4.09236   0.64645 
 H                     3.50066  -2.75451   1.79958 
 H                     2.18093  -2.80055  -0.96686 
 H                     1.3559   -2.74348   0.58388 
 H                     2.55571   3.00207   0.05825 
 
 ITRead=  0  0  0  0  0  0  0  0  0  0  0  0  0  0  0  0  0  0  0  0
 ITRead=  0  0  0  0  0  0  0  0  0  0  0  0  0  0  0  0  0  0  0  0
 ITRead=  0  0  0  0  0  0  0  0  0  0  0  0  0  0  0  0
 MicOpt= -1 -1 -1 -1 -1 -1 -1 -1 -1 -1 -1 -1 -1 -1 -1 -1 -1 -1 -1 -1
 MicOpt= -1 -1 -1 -1 -1 -1 -1 -1 -1 -1 -1 -1 -1 -1 -1 -1 -1 -1 -1 -1
 MicOpt= -1 -1 -1 -1 -1 -1 -1 -1 -1 -1 -1 -1 -1 -1 -1 -1
 NAtoms=     56 NQM=       56 NQMF=       0 NMMI=      0 NMMIF=      0
                NMic=       0 NMicF=      0.
                    Isotopes and Nuclear Properties:
 (Nuclear quadrupole moments (NQMom) in fm**2, nuclear magnetic moments (NMagM)
  in nuclear magnetons)

  Atom         1           2           3           4           5           6           7           8           9          10
 IAtWgt=          14          12          12          12          12          12          12          14          12          12
 AtmWgt=  14.0030740  12.0000000  12.0000000  12.0000000  12.0000000  12.0000000  12.0000000  14.0030740  12.0000000  12.0000000
 NucSpn=           2           0           0           0           0           0           0           2           0           0
 AtZEff=  -0.0000000  -0.0000000  -0.0000000  -0.0000000  -0.0000000  -0.0000000  -0.0000000  -0.0000000  -0.0000000  -0.0000000
 NQMom=    2.0440000   0.0000000   0.0000000   0.0000000   0.0000000   0.0000000   0.0000000   2.0440000   0.0000000   0.0000000
 NMagM=    0.4037610   0.0000000   0.0000000   0.0000000   0.0000000   0.0000000   0.0000000   0.4037610   0.0000000   0.0000000
 AtZNuc=   7.0000000   6.0000000   6.0000000   6.0000000   6.0000000   6.0000000   6.0000000   7.0000000   6.0000000   6.0000000

  Atom        11          12          13          14          15          16          17          18          19          20
 IAtWgt=          12          12          12          12          12          12          16          12          12          12
 AtmWgt=  12.0000000  12.0000000  12.0000000  12.0000000  12.0000000  12.0000000  15.9949146  12.0000000  12.0000000  12.0000000
 NucSpn=           0           0           0           0           0           0           0           0           0           0
 AtZEff=  -0.0000000  -0.0000000  -0.0000000  -0.0000000  -0.0000000  -0.0000000  -0.0000000  -0.0000000  -0.0000000  -0.0000000
 NQMom=    0.0000000   0.0000000   0.0000000   0.0000000   0.0000000   0.0000000   0.0000000   0.0000000   0.0000000   0.0000000
 NMagM=    0.0000000   0.0000000   0.0000000   0.0000000   0.0000000   0.0000000   0.0000000   0.0000000   0.0000000   0.0000000
 AtZNuc=   6.0000000   6.0000000   6.0000000   6.0000000   6.0000000   6.0000000   8.0000000   6.0000000   6.0000000   6.0000000

  Atom        21          22          23          24          25          26          27          28          29          30
 IAtWgt=          14          12          12          12          12          12          12          12          12          12
 AtmWgt=  14.0030740  12.0000000  12.0000000  12.0000000  12.0000000  12.0000000  12.0000000  12.0000000  12.0000000  12.0000000
 NucSpn=           2           0           0           0           0           0           0           0           0           0
 AtZEff=  -0.0000000  -0.0000000  -0.0000000  -0.0000000  -0.0000000  -0.0000000  -0.0000000  -0.0000000  -0.0000000  -0.0000000
 NQMom=    2.0440000   0.0000000   0.0000000   0.0000000   0.0000000   0.0000000   0.0000000   0.0000000   0.0000000   0.0000000
 NMagM=    0.4037610   0.0000000   0.0000000   0.0000000   0.0000000   0.0000000   0.0000000   0.0000000   0.0000000   0.0000000
 AtZNuc=   7.0000000   6.0000000   6.0000000   6.0000000   6.0000000   6.0000000   6.0000000   6.0000000   6.0000000   6.0000000

  Atom        31          32          33          34          35          36          37          38          39          40
 IAtWgt=           1           1           1           1           1           1           1           1           1           1
 AtmWgt=   1.0078250   1.0078250   1.0078250   1.0078250   1.0078250   1.0078250   1.0078250   1.0078250   1.0078250   1.0078250
 NucSpn=           1           1           1           1           1           1           1           1           1           1
 AtZEff=  -0.0000000  -0.0000000  -0.0000000  -0.0000000  -0.0000000  -0.0000000  -0.0000000  -0.0000000  -0.0000000  -0.0000000
 NQMom=    0.0000000   0.0000000   0.0000000   0.0000000   0.0000000   0.0000000   0.0000000   0.0000000   0.0000000   0.0000000
 NMagM=    2.7928460   2.7928460   2.7928460   2.7928460   2.7928460   2.7928460   2.7928460   2.7928460   2.7928460   2.7928460
 AtZNuc=   1.0000000   1.0000000   1.0000000   1.0000000   1.0000000   1.0000000   1.0000000   1.0000000   1.0000000   1.0000000

  Atom        41          42          43          44          45          46          47          48          49          50
 IAtWgt=           1           1           1           1           1           1           1           1           1           1
 AtmWgt=   1.0078250   1.0078250   1.0078250   1.0078250   1.0078250   1.0078250   1.0078250   1.0078250   1.0078250   1.0078250
 NucSpn=           1           1           1           1           1           1           1           1           1           1
 AtZEff=  -0.0000000  -0.0000000  -0.0000000  -0.0000000  -0.0000000  -0.0000000  -0.0000000  -0.0000000  -0.0000000  -0.0000000
 NQMom=    0.0000000   0.0000000   0.0000000   0.0000000   0.0000000   0.0000000   0.0000000   0.0000000   0.0000000   0.0000000
 NMagM=    2.7928460   2.7928460   2.7928460   2.7928460   2.7928460   2.7928460   2.7928460   2.7928460   2.7928460   2.7928460
 AtZNuc=   1.0000000   1.0000000   1.0000000   1.0000000   1.0000000   1.0000000   1.0000000   1.0000000   1.0000000   1.0000000

  Atom        51          52          53          54          55          56
 IAtWgt=           1           1           1           1           1           1
 AtmWgt=   1.0078250   1.0078250   1.0078250   1.0078250   1.0078250   1.0078250
 NucSpn=           1           1           1           1           1           1
 AtZEff=  -0.0000000  -0.0000000  -0.0000000  -0.0000000  -0.0000000  -0.0000000
 NQMom=    0.0000000   0.0000000   0.0000000   0.0000000   0.0000000   0.0000000
 NMagM=    2.7928460   2.7928460   2.7928460   2.7928460   2.7928460   2.7928460
 AtZNuc=   1.0000000   1.0000000   1.0000000   1.0000000   1.0000000   1.0000000
 Leave Link  101 at Sat Nov  8 09:27:32 2025, MaxMem= 30870077440 cpu:               3.8 elap:               0.1
 (Enter /public/software/gauss/g16/l202.exe)
 Stoichiometry    C26H26N3O(1+)
 Framework group  C1[X(C26H26N3O)]
 Deg. of freedom   162
 Full point group                 C1      NOp   1
 Largest Abelian subgroup         C1      NOp   1
 Largest concise Abelian subgroup C1      NOp   1
                         Standard orientation:                         
 ---------------------------------------------------------------------
 Center     Atomic      Atomic             Coordinates (Angstroms)
 Number     Number       Type             X           Y           Z
 ---------------------------------------------------------------------
      1          7           0       -0.000017   -4.578745   -0.000086
      2          6           0       -0.000010   -3.413397   -0.000019
      3          6           0        0.000004   -1.982068    0.000020
      4          6           0       -1.228094   -1.293129    0.027154
      5          6           0       -2.504615   -1.917497    0.053833
      6          6           0       -3.665657   -1.194606    0.080254
      7          6           0       -3.605456    0.252902    0.052860
      8          7           0       -4.750377    0.972671    0.029685
      9          6           0       -6.086586    0.364797   -0.092601
     10          6           0       -6.037670   -1.049054   -0.649651
     11          6           0       -5.012860   -1.869713    0.132734
     12          6           0       -4.759849    2.443280    0.083784
     13          6           0       -3.504134    3.002399    0.732177
     14          6           0       -2.259660    2.421255    0.060870
     15          6           0       -2.337710    0.913066    0.048197
     16          6           0       -1.199223    0.132174    0.029275
     17          8           0        0.000007    0.792544   -0.000050
     18          6           0        1.199242    0.132163   -0.029311
     19          6           0        2.337722    0.913064   -0.048241
     20          6           0        3.605469    0.252896   -0.052843
     21          7           0        4.750399    0.972637   -0.029859
     22          6           0        6.086615    0.364789    0.092756
     23          6           0        6.037601   -1.049065    0.649783
     24          6           0        5.012869   -1.869689   -0.132745
     25          6           0        4.759823    2.443261   -0.083671
     26          6           0        3.504187    3.002416   -0.732175
     27          6           0        2.259639    2.421257   -0.061014
     28          6           0        3.665653   -1.194611   -0.080250
     29          6           0        2.504617   -1.917509   -0.053825
     30          6           0        1.228100   -1.293135   -0.027137
     31          1           0       -2.555710   -3.002056    0.058262
     32          1           0       -6.566328    0.374372    0.895052
     33          1           0       -6.676214    1.016633   -0.744287
     34          1           0       -7.034998   -1.491128   -0.575379
     35          1           0       -5.764175   -1.022075   -1.710534
     36          1           0       -5.341393   -1.950573    1.178300
     37          1           0       -4.931487   -2.888502   -0.255897
     38          1           0       -4.877312    2.832323   -0.936530
     39          1           0       -5.649882    2.738250    0.647309
     40          1           0       -3.517298    4.092343    0.646478
     41          1           0       -3.500486    2.754461    1.799571
     42          1           0       -2.181123    2.800501   -0.967034
     43          1           0       -1.355846    2.743536    0.583578
     44          1           0        6.566592    0.374405   -0.894777
     45          1           0        6.676046    1.016636    0.744605
     46          1           0        7.034929   -1.491160    0.575646
     47          1           0        5.763958   -1.022097    1.710630
     48          1           0        5.341467   -1.950422   -1.178301
     49          1           0        4.931508   -2.888518    0.255776
     50          1           0        4.877078    2.832101    0.936746
     51          1           0        5.649939    2.738372   -0.646983
     52          1           0        3.517344    4.092358   -0.646450
     53          1           0        3.500657    2.754508   -1.799577
     54          1           0        2.180928    2.800550    0.966858
     55          1           0        1.355895    2.743476   -0.583881
     56          1           0        2.555709   -3.002068   -0.058252
 ---------------------------------------------------------------------
 Rotational constants (GHZ):           0.3310323           0.0896947           0.0715535
 Leave Link  202 at Sat Nov  8 09:27:32 2025, MaxMem= 30870077440 cpu:               0.2 elap:               0.0
 (Enter /public/software/gauss/g16/l301.exe)
 Standard basis: def2TZVPP (5D, 7F)
 Ernie: Thresh=  0.10000D-02 Tol=  0.10000D-05 Strict=F.
 There are  1470 symmetry adapted cartesian basis functions of A   symmetry.
 There are  1294 symmetry adapted basis functions of A   symmetry.
  1294 basis functions,  1972 primitive gaussians,  1470 cartesian basis functions
   105 alpha electrons      105 beta electrons
       nuclear repulsion energy      2830.5430367050 Hartrees.
 IExCor= 4336 DFT=T Ex+Corr=M062X ExCW=0 ScaHFX=  0.540000
 ScaDFX=  1.000000  1.000000  1.000000  1.000000 ScalE2=  1.000000  1.000000
 IRadAn=      5 IRanWt=     -1 IRanGd=            0 ICorTp=0 IEmpDi=131
 NAtoms=   56 NActive=   56 NUniq=   56 SFac= 1.00D+00 NAtFMM=   60 NAOKFM=F Big=F
 Integral buffers will be    131072 words long.
 Raffenetti 2 integral format.
 Two-electron integral symmetry is turned on.
 R6Disp:  Grimme-D3 Dispersion energy=       -0.0040913781 Hartrees.
 Nuclear repulsion after empirical dispersion term =     2830.5389453269 Hartrees.
 ------------------------------------------------------------------------------
 Polarizable Continuum Model (PCM)
 =================================
 Model                : PCM.
 Atomic radii         : UFF (Universal Force Field).
 Polarization charges : Total charges.
 Charge compensation  : None.
 Solution method      : On-the-fly selection.
 Cavity type          : Scaled VdW (van der Waals Surface) (Alpha=1.100).
 Cavity algorithm     : GePol (No added spheres)
                        Default sphere list used, NSphG=   56.
                        Lebedev-Laikov grids with approx.  5.0 points / Ang**2.
                        Smoothing algorithm: York/Karplus (Gamma=1.0000).
                        Polarization charges: spherical gaussians, with
                                              point-specific exponents (IZeta= 3).
                        Self-potential: point-specific (ISelfS= 7).
                        Self-field    : sphere-specific E.n sum rule (ISelfD= 2).
 Solvent              : Water, Eps=  78.355300 Eps(inf)=   1.777849
 ------------------------------------------------------------------------------
 GePol: Number of generator spheres                  =      56
 GePol: Total number of spheres                      =      56
 GePol: Number of exposed spheres                    =      56 (100.00%)
 GePol: Number of points                             =    3704
 GePol: Average weight of points                     =       0.13
 GePol: Minimum weight of points                     =   0.72D-10
 GePol: Maximum weight of points                     =    0.20577
 GePol: Number of points with low weight             =     267
 GePol: Fraction of low-weight points (<1% of avg)   =       7.21%
 GePol: Cavity surface area                          =    471.666 Ang**2
 GePol: Cavity volume                                =    540.656 Ang**3
 Leave Link  301 at Sat Nov  8 09:27:32 2025, MaxMem= 30870077440 cpu:               3.1 elap:               0.1
 (Enter /public/software/gauss/g16/l302.exe)
 NPDir=0 NMtPBC=     1 NCelOv=     1 NCel=       1 NClECP=     1 NCelD=      1
         NCelK=      1 NCelE2=     1 NClLst=     1 CellRange=     0.0.
 One-electron integrals computed using PRISM.
 One-electron integral symmetry used in STVInt
   1 Symmetry operations used in ECPInt.
 ECPInt:  NShTT=  118341 NPrTT=  327574 LenC2=   90356 LenP2D=  178619.
 LDataN:  DoStor=T MaxTD1= 6 Len=  172
 NBasis=  1294 RedAO= T EigKep=  2.24D-06  NBF=  1294
 NBsUse=  1294 1.00D-06 EigRej= -1.00D+00 NBFU=  1294
 Precomputing XC quadrature grid using
 IXCGrd= 4 IRadAn=           5 IRanWt=          -1 IRanGd=           0 AccXCQ= 0.00D+00.
 Generated NRdTot=       0 NPtTot=           0 NUsed=           0 NTot=          32
 NSgBfM=  1424  1424  1424  1424  1424 MxSgAt=    56 MxSgA2=    56.
 Leave Link  302 at Sat Nov  8 09:27:36 2025, MaxMem= 30870077440 cpu:             250.8 elap:               3.9
 (Enter /public/software/gauss/g16/l303.exe)
 DipDrv:  MaxL=1.
 Leave Link  303 at Sat Nov  8 09:27:37 2025, MaxMem= 30870077440 cpu:              16.2 elap:               0.3
 (Enter /public/software/gauss/g16/l401.exe)
 ExpMin= 9.52D-02 ExpMax= 2.70D+04 ExpMxC= 9.22D+02 IAcc=3 IRadAn=         5 AccDes= 0.00D+00
 Harris functional with IExCor= 1009 and IRadAn=       5 diagonalized for initial guess.
 HarFok:  IExCor= 1009 AccDes= 0.00D+00 IRadAn=         5 IDoV= 1 UseB2=F ITyADJ=14
 ICtDFT=  3500011 ScaDFX=  1.000000  1.000000  1.000000  1.000000
 FoFCou: FMM=F IPFlag=           0 FMFlag=      100000 FMFlg1=           0
         NFxFlg=           0 DoJE=T BraDBF=F KetDBF=T FulRan=T
         wScrn=  0.000000 ICntrl=       500 IOpCl=  0 I1Cent=   200000004 NGrid=           0
         NMat0=    1 NMatS0=      1 NMatT0=    0 NMatD0=    1 NMtDS0=    0 NMtDT0=    0
 Petite list used in FoFCou.
 Harris En= -1245.05123218186    
 JPrj=0 DoOrth=F DoCkMO=F.
 Leave Link  401 at Sat Nov  8 09:27:42 2025, MaxMem= 30870077440 cpu:             370.4 elap:               5.8
 (Enter /public/software/gauss/g16/l502.exe)
 Integral symmetry usage will be decided dynamically.
 Closed shell SCF:
 Using DIIS extrapolation, IDIIS=  1040.
 NGot= 30870077440 LenX= 30865649052 LenY= 30863486682
 Requested convergence on RMS density matrix=1.00D-08 within 128 cycles.
 Requested convergence on MAX density matrix=1.00D-06.
 Requested convergence on             energy=1.00D-06.
 No special actions if energy rises.
 Fock matrices will be formed incrementally for  20 cycles.

 Cycle   1  Pass 1  IDiag  1:
 FoFJK:  IHMeth= 1 ICntrl=       0 DoSepK=F KAlg= 0 I1Cent=           0 FoldK=F
 IRaf= 680000000 NMat=       1 IRICut=       1 DoRegI=T DoRafI=F ISym2E= 0 IDoP0=0 IntGTp=1.
 FoFCou: FMM=F IPFlag=           0 FMFlag=      100000 FMFlg1=           0
         NFxFlg=           0 DoJE=F BraDBF=F KetDBF=F FulRan=T
         wScrn=  0.000000 ICntrl=         0 IOpCl=  0 I1Cent=           0 NGrid=           0
         NMat0=    1 NMatS0=      1 NMatT0=    0 NMatD0=    1 NMtDS0=    0 NMtDT0=    0
 Symmetry not used in FoFCou.
 Inv3:  Mode=1 IEnd=    41158848.
 Iteration    1 A*A^-1 deviation from unit magnitude is 7.33D-15 for   1439.
 Iteration    1 A*A^-1 deviation from orthogonality  is 3.14D-15 for   1555   1417.
 Iteration    1 A^-1*A deviation from unit magnitude is 6.66D-15 for   1439.
 Iteration    1 A^-1*A deviation from orthogonality  is 1.61D-15 for   2726   1376.
 E= -1245.12758222869    
 DIIS: error= 1.66D-02 at cycle   1 NSaved=   1.
 NSaved= 1 IEnMin= 1 EnMin= -1245.12758222869     IErMin= 1 ErrMin= 1.66D-02
 ErrMax= 1.66D-02  0.00D+00 EMaxC= 1.00D-01 BMatC= 7.75D-01 BMatP= 7.75D-01
 IDIUse=3 WtCom= 8.34D-01 WtEn= 1.66D-01
 Coeff-Com:  0.100D+01
 Coeff-En:   0.100D+01
 Coeff:      0.100D+01
 Gap=     0.139 Goal=   None    Shift=    0.000
 GapD=    0.139 DampG=1.000 DampE=0.500 DampFc=0.5000 IDamp=-1.
 Damping current iteration by 5.00D-01
 RMSDP=1.76D-03 MaxDP=1.54D-01              OVMax= 1.50D-01

 Cycle   2  Pass 1  IDiag  1:
 RMSU=  8.65D-04    CP:  9.63D-01
 E= -1245.44089800262     Delta-E=       -0.313315773928 Rises=F Damp=T
 DIIS: error= 4.68D-03 at cycle   2 NSaved=   2.
 NSaved= 2 IEnMin= 2 EnMin= -1245.44089800262     IErMin= 2 ErrMin= 4.68D-03
 ErrMax= 4.68D-03  0.00D+00 EMaxC= 1.00D-01 BMatC= 8.31D-02 BMatP= 7.75D-01
 IDIUse=3 WtCom= 9.53D-01 WtEn= 4.68D-02
 Coeff-Com: -0.183D+00 0.118D+01
 Coeff-En:   0.000D+00 0.100D+01
 Coeff:     -0.174D+00 0.117D+01
 Gap=     0.147 Goal=   None    Shift=    0.000
 RMSDP=7.81D-04 MaxDP=5.49D-02 DE=-3.13D-01 OVMax= 9.59D-02

 Cycle   3  Pass 1  IDiag  1:
 RMSU=  6.95D-04    CP:  9.36D-01  1.39D+00
 E= -1245.70580589639     Delta-E=       -0.264907893767 Rises=F Damp=F
 DIIS: error= 6.11D-03 at cycle   3 NSaved=   3.
 NSaved= 3 IEnMin= 3 EnMin= -1245.70580589639     IErMin= 2 ErrMin= 4.68D-03
 ErrMax= 6.11D-03  0.00D+00 EMaxC= 1.00D-01 BMatC= 3.81D-02 BMatP= 8.31D-02
 IDIUse=3 WtCom= 9.39D-01 WtEn= 6.11D-02
 Coeff-Com: -0.154D+00 0.531D+00 0.623D+00
 Coeff-En:   0.000D+00 0.000D+00 0.100D+01
 Coeff:     -0.145D+00 0.499D+00 0.646D+00
 Gap=     0.137 Goal=   None    Shift=    0.000
 RMSDP=2.20D-04 MaxDP=3.05D-02 DE=-2.65D-01 OVMax= 6.12D-02

 Cycle   4  Pass 1  IDiag  1:
 RMSU=  1.86D-04    CP:  9.36D-01  1.50D+00  9.09D-01
 E= -1245.72997548972     Delta-E=       -0.024169593332 Rises=F Damp=F
 DIIS: error= 3.53D-03 at cycle   4 NSaved=   4.
 NSaved= 4 IEnMin= 4 EnMin= -1245.72997548972     IErMin= 4 ErrMin= 3.53D-03
 ErrMax= 3.53D-03  0.00D+00 EMaxC= 1.00D-01 BMatC= 1.09D-02 BMatP= 3.81D-02
 IDIUse=3 WtCom= 9.65D-01 WtEn= 3.53D-02
 Coeff-Com: -0.643D-01 0.172D+00 0.390D+00 0.502D+00
 Coeff-En:   0.000D+00 0.000D+00 0.226D+00 0.774D+00
 Coeff:     -0.620D-01 0.165D+00 0.385D+00 0.512D+00
 Gap=     0.140 Goal=   None    Shift=    0.000
 RMSDP=1.07D-04 MaxDP=1.82D-02 DE=-2.42D-02 OVMax= 2.73D-02

 Cycle   5  Pass 1  IDiag  1:
 RMSU=  6.88D-05    CP:  9.35D-01  1.47D+00  9.47D-01  6.19D-01
 E= -1245.73914293917     Delta-E=       -0.009167449451 Rises=F Damp=F
 DIIS: error= 6.76D-04 at cycle   5 NSaved=   5.
 NSaved= 5 IEnMin= 5 EnMin= -1245.73914293917     IErMin= 5 ErrMin= 6.76D-04
 ErrMax= 6.76D-04  0.00D+00 EMaxC= 1.00D-01 BMatC= 5.65D-04 BMatP= 1.09D-02
 IDIUse=3 WtCom= 9.93D-01 WtEn= 6.76D-03
 Coeff-Com: -0.186D-01 0.392D-01 0.143D+00 0.263D+00 0.574D+00
 Coeff-En:   0.000D+00 0.000D+00 0.000D+00 0.000D+00 0.100D+01
 Coeff:     -0.185D-01 0.389D-01 0.142D+00 0.261D+00 0.576D+00
 Gap=     0.140 Goal=   None    Shift=    0.000
 RMSDP=2.43D-05 MaxDP=3.26D-03 DE=-9.17D-03 OVMax= 5.39D-03

 Cycle   6  Pass 1  IDiag  1:
 RMSU=  2.05D-05    CP:  9.34D-01  1.48D+00  9.41D-01  6.39D-01  8.65D-01
 E= -1245.73959896263     Delta-E=       -0.000456023457 Rises=F Damp=F
 DIIS: error= 1.34D-04 at cycle   6 NSaved=   6.
 NSaved= 6 IEnMin= 6 EnMin= -1245.73959896263     IErMin= 6 ErrMin= 1.34D-04
 ErrMax= 1.34D-04  0.00D+00 EMaxC= 1.00D-01 BMatC= 4.07D-05 BMatP= 5.65D-04
 IDIUse=3 WtCom= 9.99D-01 WtEn= 1.34D-03
 Coeff-Com: -0.301D-02 0.411D-02 0.329D-01 0.771D-01 0.271D+00 0.618D+00
 Coeff-En:   0.000D+00 0.000D+00 0.000D+00 0.000D+00 0.000D+00 0.100D+01
 Coeff:     -0.301D-02 0.410D-02 0.329D-01 0.770D-01 0.271D+00 0.618D+00
 Gap=     0.141 Goal=   None    Shift=    0.000
 RMSDP=8.23D-06 MaxDP=7.52D-04 DE=-4.56D-04 OVMax= 2.47D-03

 Cycle   7  Pass 1  IDiag  1:
 RMSU=  7.40D-06    CP:  9.35D-01  1.48D+00  9.42D-01  6.38D-01  9.14D-01
                    CP:  1.01D+00
 E= -1245.73963537013     Delta-E=       -0.000036407506 Rises=F Damp=F
 DIIS: error= 4.41D-05 at cycle   7 NSaved=   7.
 NSaved= 7 IEnMin= 7 EnMin= -1245.73963537013     IErMin= 7 ErrMin= 4.41D-05
 ErrMax= 4.41D-05  0.00D+00 EMaxC= 1.00D-01 BMatC= 4.20D-06 BMatP= 4.07D-05
 IDIUse=1 WtCom= 1.00D+00 WtEn= 0.00D+00
 Coeff-Com:  0.146D-02-0.389D-02-0.784D-02-0.901D-02 0.178D-01 0.255D+00
 Coeff-Com:  0.746D+00
 Coeff:      0.146D-02-0.389D-02-0.784D-02-0.901D-02 0.178D-01 0.255D+00
 Coeff:      0.746D+00
 Gap=     0.141 Goal=   None    Shift=    0.000
 RMSDP=4.38D-06 MaxDP=4.15D-04 DE=-3.64D-05 OVMax= 6.45D-04

 Cycle   8  Pass 1  IDiag  1:
 RMSU=  3.26D-06    CP:  9.35D-01  1.47D+00  9.44D-01  6.41D-01  9.42D-01
                    CP:  1.08D+00  1.14D+00
 E= -1245.73963959995     Delta-E=       -0.000004229814 Rises=F Damp=F
 DIIS: error= 1.07D-05 at cycle   8 NSaved=   8.
 NSaved= 8 IEnMin= 8 EnMin= -1245.73963959995     IErMin= 8 ErrMin= 1.07D-05
 ErrMax= 1.07D-05  0.00D+00 EMaxC= 1.00D-01 BMatC= 3.08D-07 BMatP= 4.20D-06
 IDIUse=1 WtCom= 1.00D+00 WtEn= 0.00D+00
 Coeff-Com:  0.941D-03-0.205D-02-0.688D-02-0.129D-01-0.248D-01 0.338D-01
 Coeff-Com:  0.256D+00 0.755D+00
 Coeff:      0.941D-03-0.205D-02-0.688D-02-0.129D-01-0.248D-01 0.338D-01
 Coeff:      0.256D+00 0.755D+00
 Gap=     0.141 Goal=   None    Shift=    0.000
 RMSDP=1.52D-06 MaxDP=1.73D-04 DE=-4.23D-06 OVMax= 3.80D-04

 Cycle   9  Pass 1  IDiag  1:
 RMSU=  9.66D-07    CP:  9.35D-01  1.47D+00  9.44D-01  6.40D-01  9.53D-01
                    CP:  1.10D+00  1.19D+00  1.14D+00
 E= -1245.73964005982     Delta-E=       -0.000000459868 Rises=F Damp=F
 DIIS: error= 5.58D-06 at cycle   9 NSaved=   9.
 NSaved= 9 IEnMin= 9 EnMin= -1245.73964005982     IErMin= 9 ErrMin= 5.58D-06
 ErrMax= 5.58D-06  0.00D+00 EMaxC= 1.00D-01 BMatC= 5.22D-08 BMatP= 3.08D-07
 IDIUse=1 WtCom= 1.00D+00 WtEn= 0.00D+00
 Coeff-Com:  0.244D-03-0.495D-03-0.204D-02-0.435D-02-0.111D-01-0.559D-02
 Coeff-Com:  0.267D-01 0.312D+00 0.685D+00
 Coeff:      0.244D-03-0.495D-03-0.204D-02-0.435D-02-0.111D-01-0.559D-02
 Coeff:      0.267D-01 0.312D+00 0.685D+00
 Gap=     0.141 Goal=   None    Shift=    0.000
 RMSDP=3.70D-07 MaxDP=3.56D-05 DE=-4.60D-07 OVMax= 1.27D-04

 Cycle  10  Pass 1  IDiag  1:
 RMSU=  2.47D-07    CP:  9.35D-01  1.47D+00  9.44D-01  6.41D-01  9.54D-01
                    CP:  1.10D+00  1.21D+00  1.20D+00  1.09D+00
 E= -1245.73964012352     Delta-E=       -0.000000063707 Rises=F Damp=F
 DIIS: error= 2.28D-06 at cycle  10 NSaved=  10.
 NSaved=10 IEnMin=10 EnMin= -1245.73964012352     IErMin=10 ErrMin= 2.28D-06
 ErrMax= 2.28D-06  0.00D+00 EMaxC= 1.00D-01 BMatC= 6.53D-09 BMatP= 5.22D-08
 IDIUse=1 WtCom= 1.00D+00 WtEn= 0.00D+00
 Coeff-Com: -0.603D-04 0.144D-03 0.339D-03 0.487D-03-0.192D-05-0.593D-02
 Coeff-Com: -0.368D-01 0.504D-02 0.253D+00 0.784D+00
 Coeff:     -0.603D-04 0.144D-03 0.339D-03 0.487D-03-0.192D-05-0.593D-02
 Coeff:     -0.368D-01 0.504D-02 0.253D+00 0.784D+00
 Gap=     0.141 Goal=   None    Shift=    0.000
 RMSDP=1.87D-07 MaxDP=2.07D-05 DE=-6.37D-08 OVMax= 8.21D-05

 Cycle  11  Pass 1  IDiag  1:
 RMSU=  1.20D-07    CP:  9.35D-01  1.47D+00  9.44D-01  6.40D-01  9.55D-01
                    CP:  1.10D+00  1.21D+00  1.22D+00  1.18D+00  1.13D+00
 E= -1245.73964013380     Delta-E=       -0.000000010277 Rises=F Damp=F
 DIIS: error= 8.70D-07 at cycle  11 NSaved=  11.
 NSaved=11 IEnMin=11 EnMin= -1245.73964013380     IErMin=11 ErrMin= 8.70D-07
 ErrMax= 8.70D-07  0.00D+00 EMaxC= 1.00D-01 BMatC= 1.73D-09 BMatP= 6.53D-09
 IDIUse=1 WtCom= 1.00D+00 WtEn= 0.00D+00
 Coeff-Com: -0.676D-04 0.148D-03 0.487D-03 0.940D-03 0.160D-02-0.236D-02
 Coeff-Com: -0.258D-01-0.409D-01 0.330D-01 0.408D+00 0.625D+00
 Coeff:     -0.676D-04 0.148D-03 0.487D-03 0.940D-03 0.160D-02-0.236D-02
 Coeff:     -0.258D-01-0.409D-01 0.330D-01 0.408D+00 0.625D+00
 Gap=     0.141 Goal=   None    Shift=    0.000
 RMSDP=9.20D-08 MaxDP=1.20D-05 DE=-1.03D-08 OVMax= 1.49D-05

 Cycle  12  Pass 1  IDiag  1:
 RMSU=  5.77D-08    CP:  9.35D-01  1.47D+00  9.44D-01  6.40D-01  9.55D-01
                    CP:  1.10D+00  1.21D+00  1.23D+00  1.22D+00  1.21D+00
                    CP:  1.12D+00
 E= -1245.73964013603     Delta-E=       -0.000000002232 Rises=F Damp=F
 DIIS: error= 4.22D-07 at cycle  12 NSaved=  12.
 NSaved=12 IEnMin=12 EnMin= -1245.73964013603     IErMin=12 ErrMin= 4.22D-07
 ErrMax= 4.22D-07  0.00D+00 EMaxC= 1.00D-01 BMatC= 1.50D-10 BMatP= 1.73D-09
 IDIUse=1 WtCom= 1.00D+00 WtEn= 0.00D+00
 Coeff-Com: -0.121D-04 0.253D-04 0.110D-03 0.264D-03 0.579D-03 0.441D-03
 Coeff-Com: -0.295D-02-0.131D-01-0.335D-01 0.276D-01 0.230D+00 0.790D+00
 Coeff:     -0.121D-04 0.253D-04 0.110D-03 0.264D-03 0.579D-03 0.441D-03
 Coeff:     -0.295D-02-0.131D-01-0.335D-01 0.276D-01 0.230D+00 0.790D+00
 Gap=     0.141 Goal=   None    Shift=    0.000
 RMSDP=2.91D-08 MaxDP=2.86D-06 DE=-2.23D-09 OVMax= 1.45D-05

 Cycle  13  Pass 1  IDiag  1:
 RMSU=  1.81D-08    CP:  9.35D-01  1.47D+00  9.44D-01  6.40D-01  9.55D-01
                    CP:  1.10D+00  1.21D+00  1.23D+00  1.23D+00  1.23D+00
                    CP:  1.24D+00  1.18D+00
 E= -1245.73964013620     Delta-E=       -0.000000000169 Rises=F Damp=F
 DIIS: error= 1.08D-07 at cycle  13 NSaved=  13.
 NSaved=13 IEnMin=13 EnMin= -1245.73964013620     IErMin=13 ErrMin= 1.08D-07
 ErrMax= 1.08D-07  0.00D+00 EMaxC= 1.00D-01 BMatC= 3.49D-11 BMatP= 1.50D-10
 IDIUse=1 WtCom= 1.00D+00 WtEn= 0.00D+00
 Coeff-Com:  0.400D-05-0.920D-05-0.164D-04-0.995D-05 0.158D-04 0.384D-03
 Coeff-Com:  0.178D-02-0.275D-03-0.186D-01-0.364D-01-0.259D-01 0.314D+00
 Coeff-Com:  0.765D+00
 Coeff:      0.400D-05-0.920D-05-0.164D-04-0.995D-05 0.158D-04 0.384D-03
 Coeff:      0.178D-02-0.275D-03-0.186D-01-0.364D-01-0.259D-01 0.314D+00
 Coeff:      0.765D+00
 Gap=     0.141 Goal=   None    Shift=    0.000
 RMSDP=1.21D-08 MaxDP=1.03D-06 DE=-1.69D-10 OVMax= 4.71D-06

 Cycle  14  Pass 1  IDiag  1:
 RMSU=  7.22D-09    CP:  9.35D-01  1.47D+00  9.44D-01  6.40D-01  9.56D-01
                    CP:  1.10D+00  1.21D+00  1.23D+00  1.23D+00  1.24D+00
                    CP:  1.28D+00  1.29D+00  1.19D+00
 E= -1245.73964013617     Delta-E=        0.000000000030 Rises=F Damp=F
 DIIS: error= 3.34D-08 at cycle  14 NSaved=  14.
 NSaved=14 IEnMin=13 EnMin= -1245.73964013620     IErMin=14 ErrMin= 3.34D-08
 ErrMax= 3.34D-08  0.00D+00 EMaxC= 1.00D-01 BMatC= 3.15D-12 BMatP= 3.49D-11
 IDIUse=1 WtCom= 1.00D+00 WtEn= 0.00D+00
 Coeff-Com:  0.246D-05-0.540D-05-0.164D-04-0.295D-04-0.570D-04 0.824D-04
 Coeff-Com:  0.860D-03 0.149D-02-0.185D-02-0.891D-02-0.468D-01 0.205D-01
 Coeff-Com:  0.237D+00 0.797D+00
 Coeff:      0.246D-05-0.540D-05-0.164D-04-0.295D-04-0.570D-04 0.824D-04
 Coeff:      0.860D-03 0.149D-02-0.185D-02-0.891D-02-0.468D-01 0.205D-01
 Coeff:      0.237D+00 0.797D+00
 Gap=     0.141 Goal=   None    Shift=    0.000
 RMSDP=3.65D-09 MaxDP=2.68D-07 DE= 2.96D-11 OVMax= 1.70D-06

 Error on total polarization charges =  0.01847
 SCF Done:  E(RM062X) =  -1245.73964014     A.U. after   14 cycles
            NFock= 14  Conv=0.37D-08     -V/T= 2.0058
 KE= 1.238601169665D+03 PE=-8.528289724328D+03 EE= 3.213409969200D+03
 Leave Link  502 at Sat Nov  8 09:39:27 2025, MaxMem= 30870077440 cpu:           44500.9 elap:             704.0
 (Enter /public/software/gauss/g16/l601.exe)
 Copying SCF densities to generalized density rwf, IOpCl= 0 IROHF=0.

 **********************************************************************

            Population analysis using the SCF density.

 **********************************************************************

 Orbital symmetries:
       Occupied  (A) (A) (A) (A) (A) (A) (A) (A) (A) (A) (A) (A)
                 (A) (A) (A) (A) (A) (A) (A) (A) (A) (A) (A) (A)
                 (A) (A) (A) (A) (A) (A) (A) (A) (A) (A) (A) (A)
                 (A) (A) (A) (A) (A) (A) (A) (A) (A) (A) (A) (A)
                 (A) (A) (A) (A) (A) (A) (A) (A) (A) (A) (A) (A)
                 (A) (A) (A) (A) (A) (A) (A) (A) (A) (A) (A) (A)
                 (A) (A) (A) (A) (A) (A) (A) (A) (A) (A) (A) (A)
                 (A) (A) (A) (A) (A) (A) (A) (A) (A) (A) (A) (A)
                 (A) (A) (A) (A) (A) (A) (A) (A) (A)
       Virtual   (A) (A) (A) (A) (A) (A) (A) (A) (A) (A) (A) (A)
                 (A) (A) (A) (A) (A) (A) (A) (A) (A) (A) (A) (A)
                 (A) (A) (A) (A) (A) (A) (A) (A) (A) (A) (A) (A)
                 (A) (A) (A) (A) (A) (A) (A) (A) (A) (A) (A) (A)
                 (A) (A) (A) (A) (A) (A) (A) (A) (A) (A) (A) (A)
                 (A) (A) (A) (A) (A) (A) (A) (A) (A) (A) (A) (A)
                 (A) (A) (A) (A) (A) (A) (A) (A) (A) (A) (A) (A)
                 (A) (A) (A) (A) (A) (A) (A) (A) (A) (A) (A) (A)
                 (A) (A) (A) (A) (A) (A) (A) (A) (A) (A) (A) (A)
                 (A) (A) (A) (A) (A) (A) (A) (A) (A) (A) (A) (A)
                 (A) (A) (A) (A) (A) (A) (A) (A) (A) (A) (A) (A)
                 (A) (A) (A) (A) (A) (A) (A) (A) (A) (A) (A) (A)
                 (A) (A) (A) (A) (A) (A) (A) (A) (A) (A) (A) (A)
                 (A) (A) (A) (A) (A) (A) (A) (A) (A) (A) (A) (A)
                 (A) (A) (A) (A) (A) (A) (A) (A) (A) (A) (A) (A)
                 (A) (A) (A) (A) (A) (A) (A) (A) (A) (A) (A) (A)
                 (A) (A) (A) (A) (A) (A) (A) (A) (A) (A) (A) (A)
                 (A) (A) (A) (A) (A) (A) (A) (A) (A) (A) (A) (A)
                 (A) (A) (A) (A) (A) (A) (A) (A) (A) (A) (A) (A)
                 (A) (A) (A) (A) (A) (A) (A) (A) (A) (A) (A) (A)
                 (A) (A) (A) (A) (A) (A) (A) (A) (A) (A) (A) (A)
                 (A) (A) (A) (A) (A) (A) (A) (A) (A) (A) (A) (A)
                 (A) (A) (A) (A) (A) (A) (A) (A) (A) (A) (A) (A)
                 (A) (A) (A) (A) (A) (A) (A) (A) (A) (A) (A) (A)
                 (A) (A) (A) (A) (A) (A) (A) (A) (A) (A) (A) (A)
                 (A) (A) (A) (A) (A) (A) (A) (A) (A) (A) (A) (A)
                 (A) (A) (A) (A) (A) (A) (A) (A) (A) (A) (A) (A)
                 (A) (A) (A) (A) (A) (A) (A) (A) (A) (A) (A) (A)
                 (A) (A) (A) (A) (A) (A) (A) (A) (A) (A) (A) (A)
                 (A) (A) (A) (A) (A) (A) (A) (A) (A) (A) (A) (A)
                 (A) (A) (A) (A) (A) (A) (A) (A) (A) (A) (A) (A)
                 (A) (A) (A) (A) (A) (A) (A) (A) (A) (A) (A) (A)
                 (A) (A) (A) (A) (A) (A) (A) (A) (A) (A) (A) (A)
                 (A) (A) (A) (A) (A) (A) (A) (A) (A) (A) (A) (A)
                 (A) (A) (A) (A) (A) (A) (A) (A) (A) (A) (A) (A)
                 (A) (A) (A) (A) (A) (A) (A) (A) (A) (A) (A) (A)
                 (A) (A) (A) (A) (A) (A) (A) (A) (A) (A) (A) (A)
                 (A) (A) (A) (A) (A) (A) (A) (A) (A) (A) (A) (A)
                 (A) (A) (A) (A) (A) (A) (A) (A) (A) (A) (A) (A)
                 (A) (A) (A) (A) (A) (A) (A) (A) (A) (A) (A) (A)
                 (A) (A) (A) (A) (A) (A) (A) (A) (A) (A) (A) (A)
                 (A) (A) (A) (A) (A) (A) (A) (A) (A) (A) (A) (A)
                 (A) (A) (A) (A) (A) (A) (A) (A) (A) (A) (A) (A)
                 (A) (A) (A) (A) (A) (A) (A) (A) (A) (A) (A) (A)
                 (A) (A) (A) (A) (A) (A) (A) (A) (A) (A) (A) (A)
                 (A) (A) (A) (A) (A) (A) (A) (A) (A) (A) (A) (A)
                 (A) (A) (A) (A) (A) (A) (A) (A) (A) (A) (A) (A)
                 (A) (A) (A) (A) (A) (A) (A) (A) (A) (A) (A) (A)
                 (A) (A) (A) (A) (A) (A) (A) (A) (A) (A) (A) (A)
                 (A) (A) (A) (A) (A) (A) (A) (A) (A) (A) (A) (A)
                 (A) (A) (A) (A) (A) (A) (A) (A) (A) (A) (A) (A)
                 (A) (A) (A) (A) (A) (A) (A) (A) (A) (A) (A) (A)
                 (A) (A) (A) (A) (A) (A) (A) (A) (A) (A) (A) (A)
                 (A) (A) (A) (A) (A) (A) (A) (A) (A) (A) (A) (A)
                 (A) (A) (A) (A) (A) (A) (A) (A) (A) (A) (A) (A)
                 (A) (A) (A) (A) (A) (A) (A) (A) (A) (A) (A) (A)
                 (A) (A) (A) (A) (A) (A) (A) (A) (A) (A) (A) (A)
                 (A) (A) (A) (A) (A) (A) (A) (A) (A) (A) (A) (A)
                 (A) (A) (A) (A) (A) (A) (A) (A) (A) (A) (A) (A)
                 (A) (A) (A) (A) (A) (A) (A) (A) (A) (A) (A) (A)
                 (A) (A) (A) (A) (A) (A) (A) (A) (A) (A) (A) (A)
                 (A) (A) (A) (A) (A) (A) (A) (A) (A) (A) (A) (A)
                 (A) (A) (A) (A) (A) (A) (A) (A) (A) (A) (A) (A)
                 (A) (A) (A) (A) (A) (A) (A) (A) (A) (A) (A) (A)
                 (A) (A) (A) (A) (A) (A) (A) (A) (A) (A) (A) (A)
                 (A) (A) (A) (A) (A) (A) (A) (A) (A) (A) (A) (A)
                 (A) (A) (A) (A) (A) (A) (A) (A) (A) (A) (A) (A)
                 (A) (A) (A) (A) (A) (A) (A) (A) (A) (A) (A) (A)
                 (A) (A) (A) (A) (A) (A) (A) (A) (A) (A) (A) (A)
                 (A) (A) (A) (A) (A) (A) (A) (A) (A) (A) (A) (A)
                 (A) (A) (A) (A) (A) (A) (A) (A) (A) (A) (A) (A)
                 (A) (A) (A) (A) (A) (A) (A) (A) (A) (A) (A) (A)
                 (A) (A) (A) (A) (A) (A) (A) (A) (A) (A) (A) (A)
                 (A) (A) (A) (A) (A) (A) (A) (A) (A) (A) (A) (A)
                 (A) (A) (A) (A) (A) (A) (A) (A) (A) (A) (A) (A)
                 (A) (A) (A) (A) (A) (A) (A) (A) (A) (A) (A) (A)
                 (A) (A) (A) (A) (A) (A) (A) (A) (A) (A) (A) (A)
                 (A) (A) (A) (A) (A) (A) (A) (A) (A) (A) (A) (A)
                 (A) (A) (A) (A) (A) (A) (A) (A) (A) (A) (A) (A)
                 (A) (A) (A) (A) (A) (A) (A) (A) (A) (A) (A) (A)
                 (A) (A) (A) (A) (A) (A) (A) (A) (A) (A) (A) (A)
                 (A) (A) (A) (A) (A) (A) (A) (A) (A) (A) (A) (A)
                 (A) (A) (A) (A) (A) (A) (A) (A) (A) (A) (A) (A)
                 (A) (A) (A) (A) (A) (A) (A) (A) (A) (A) (A) (A)
                 (A) (A) (A) (A) (A) (A) (A) (A) (A) (A) (A) (A)
                 (A) (A) (A) (A) (A) (A) (A) (A) (A) (A) (A) (A)
                 (A) (A) (A) (A) (A) (A) (A) (A) (A) (A) (A) (A)
                 (A) (A) (A) (A) (A) (A) (A) (A) (A) (A) (A) (A)
                 (A) (A) (A) (A) (A) (A) (A) (A) (A) (A) (A) (A)
                 (A) (A) (A) (A) (A) (A) (A) (A) (A) (A) (A) (A)
                 (A) (A) (A) (A) (A) (A) (A) (A) (A) (A) (A) (A)
                 (A) (A) (A) (A) (A) (A) (A) (A) (A) (A) (A) (A)
                 (A) (A) (A) (A) (A) (A) (A) (A) (A) (A) (A) (A)
                 (A) (A) (A) (A) (A) (A) (A) (A) (A) (A) (A) (A)
                 (A) (A) (A) (A) (A) (A) (A) (A) (A) (A) (A) (A)
                 (A) (A) (A) (A) (A) (A) (A) (A) (A) (A) (A) (A)
                 (A) (A) (A) (A) (A) (A) (A) (A) (A) (A) (A) (A)
                 (A) (A) (A) (A) (A) (A) (A) (A) (A) (A) (A) (A)
                 (A) (A) (A) (A) (A) (A) (A) (A) (A) (A) (A) (A)
                 (A)
 The electronic state is 1-A.
 Alpha  occ. eigenvalues --  -19.72265 -14.80861 -14.80861 -14.79169 -10.64903
 Alpha  occ. eigenvalues --  -10.64901 -10.63803 -10.63012 -10.63012 -10.61551
 Alpha  occ. eigenvalues --  -10.59227 -10.59226 -10.58716 -10.58716 -10.58640
 Alpha  occ. eigenvalues --  -10.58640 -10.57609 -10.57609 -10.57445 -10.57445
 Alpha  occ. eigenvalues --  -10.56990 -10.56990 -10.55376 -10.55376 -10.55306
 Alpha  occ. eigenvalues --  -10.55306 -10.54932 -10.54932 -10.54896 -10.54896
 Alpha  occ. eigenvalues --   -1.25848  -1.10009  -1.09971  -1.05005  -1.00074
 Alpha  occ. eigenvalues --   -0.99638  -0.94671  -0.94413  -0.93966  -0.89175
 Alpha  occ. eigenvalues --   -0.89096  -0.88764  -0.88241  -0.86228  -0.83307
 Alpha  occ. eigenvalues --   -0.80386  -0.79325  -0.76771  -0.75968  -0.75623
 Alpha  occ. eigenvalues --   -0.74115  -0.73212  -0.71913  -0.68981  -0.67032
 Alpha  occ. eigenvalues --   -0.65581  -0.64268  -0.63521  -0.61185  -0.59933
 Alpha  occ. eigenvalues --   -0.59788  -0.58745  -0.58503  -0.57602  -0.57182
 Alpha  occ. eigenvalues --   -0.57155  -0.55027  -0.54725  -0.53721  -0.53052
 Alpha  occ. eigenvalues --   -0.52838  -0.51781  -0.51595  -0.51519  -0.50226
 Alpha  occ. eigenvalues --   -0.50219  -0.49695  -0.49435  -0.48916  -0.48676
 Alpha  occ. eigenvalues --   -0.48486  -0.48244  -0.48053  -0.47419  -0.46358
 Alpha  occ. eigenvalues --   -0.45650  -0.44965  -0.43900  -0.43184  -0.42084
 Alpha  occ. eigenvalues --   -0.42014  -0.41740  -0.41510  -0.41350  -0.41330
 Alpha  occ. eigenvalues --   -0.41115  -0.40512  -0.39417  -0.38853  -0.38783
 Alpha  occ. eigenvalues --   -0.38117  -0.33381  -0.31650  -0.28870  -0.24822
 Alpha virt. eigenvalues --   -0.10748  -0.00743   0.00254   0.00858   0.04322
 Alpha virt. eigenvalues --    0.04373   0.05174   0.05934   0.06907   0.07843
 Alpha virt. eigenvalues --    0.08045   0.09005   0.09028   0.09615   0.09617
 Alpha virt. eigenvalues --    0.10131   0.10557   0.11032   0.11082   0.11997
 Alpha virt. eigenvalues --    0.12068   0.12309   0.12807   0.13107   0.13487
 Alpha virt. eigenvalues --    0.13606   0.13860   0.14088   0.14512   0.14985
 Alpha virt. eigenvalues --    0.15010   0.15334   0.15798   0.16161   0.16584
 Alpha virt. eigenvalues --    0.16736   0.17015   0.17741   0.18131   0.18203
 Alpha virt. eigenvalues --    0.18608   0.19097   0.19354   0.19683   0.19814
 Alpha virt. eigenvalues --    0.20212   0.20318   0.20462   0.20892   0.21315
 Alpha virt. eigenvalues --    0.21953   0.22139   0.22567   0.23034   0.23078
 Alpha virt. eigenvalues --    0.23300   0.23418   0.23624   0.23979   0.24582
 Alpha virt. eigenvalues --    0.24862   0.25074   0.25698   0.25918   0.26021
 Alpha virt. eigenvalues --    0.26323   0.27212   0.27383   0.27753   0.27848
 Alpha virt. eigenvalues --    0.28736   0.28944   0.29125   0.29237   0.29721
 Alpha virt. eigenvalues --    0.30093   0.30262   0.30309   0.31286   0.31671
 Alpha virt. eigenvalues --    0.31948   0.32488   0.32544   0.33055   0.34081
 Alpha virt. eigenvalues --    0.34138   0.34639   0.34817   0.34961   0.35469
 Alpha virt. eigenvalues --    0.36065   0.36303   0.36812   0.37737   0.37809
 Alpha virt. eigenvalues --    0.38554   0.38777   0.39428   0.39813   0.39830
 Alpha virt. eigenvalues --    0.40185   0.40990   0.41065   0.41207   0.41347
 Alpha virt. eigenvalues --    0.41905   0.42099   0.42220   0.42352   0.42648
 Alpha virt. eigenvalues --    0.42693   0.43114   0.43283   0.43742   0.43991
 Alpha virt. eigenvalues --    0.44156   0.44511   0.44521   0.44990   0.45056
 Alpha virt. eigenvalues --    0.45326   0.45699   0.45818   0.46091   0.46290
 Alpha virt. eigenvalues --    0.46485   0.46960   0.47080   0.47250   0.47313
 Alpha virt. eigenvalues --    0.47406   0.47539   0.48021   0.48277   0.48481
 Alpha virt. eigenvalues --    0.48929   0.49239   0.50111   0.50370   0.50619
 Alpha virt. eigenvalues --    0.50854   0.50949   0.51561   0.51711   0.52345
 Alpha virt. eigenvalues --    0.52472   0.52689   0.53217   0.53419   0.53677
 Alpha virt. eigenvalues --    0.54087   0.54584   0.54717   0.55563   0.55677
 Alpha virt. eigenvalues --    0.55982   0.56247   0.56814   0.57749   0.57957
 Alpha virt. eigenvalues --    0.58177   0.58513   0.58694   0.59941   0.60114
 Alpha virt. eigenvalues --    0.60533   0.61194   0.61866   0.62071   0.62330
 Alpha virt. eigenvalues --    0.63274   0.63837   0.63846   0.64687   0.65118
 Alpha virt. eigenvalues --    0.65179   0.65718   0.66346   0.66408   0.66997
 Alpha virt. eigenvalues --    0.67220   0.67317   0.68175   0.68452   0.69557
 Alpha virt. eigenvalues --    0.69710   0.69937   0.69995   0.70413   0.70647
 Alpha virt. eigenvalues --    0.71445   0.72155   0.72212   0.72863   0.73136
 Alpha virt. eigenvalues --    0.73377   0.73756   0.74343   0.74649   0.74787
 Alpha virt. eigenvalues --    0.75133   0.75419   0.75827   0.76132   0.76539
 Alpha virt. eigenvalues --    0.76685   0.77383   0.77630   0.78065   0.78622
 Alpha virt. eigenvalues --    0.79219   0.79677   0.79722   0.80758   0.80911
 Alpha virt. eigenvalues --    0.82187   0.82353   0.82440   0.82526   0.82831
 Alpha virt. eigenvalues --    0.83548   0.83809   0.84160   0.84567   0.84917
 Alpha virt. eigenvalues --    0.85005   0.85480   0.86811   0.86918   0.87254
 Alpha virt. eigenvalues --    0.87484   0.87662   0.88361   0.88623   0.88899
 Alpha virt. eigenvalues --    0.89292   0.89433   0.90474   0.90832   0.91621
 Alpha virt. eigenvalues --    0.91851   0.92266   0.92741   0.94075   0.94191
 Alpha virt. eigenvalues --    0.95482   0.95581   0.96556   0.96615   0.96679
 Alpha virt. eigenvalues --    0.97727   0.98033   0.98922   0.99304   0.99426
 Alpha virt. eigenvalues --    0.99614   0.99695   1.00805   1.01424   1.01805
 Alpha virt. eigenvalues --    1.02350   1.03045   1.03686   1.03729   1.04049
 Alpha virt. eigenvalues --    1.04844   1.04996   1.05883   1.06385   1.06505
 Alpha virt. eigenvalues --    1.07115   1.07695   1.07860   1.08190   1.08550
 Alpha virt. eigenvalues --    1.09081   1.09522   1.09612   1.09962   1.10050
 Alpha virt. eigenvalues --    1.10565   1.11046   1.11160   1.11919   1.12210
 Alpha virt. eigenvalues --    1.12213   1.12714   1.13520   1.13565   1.14236
 Alpha virt. eigenvalues --    1.14977   1.15117   1.15477   1.15736   1.16961
 Alpha virt. eigenvalues --    1.17205   1.18019   1.18497   1.19110   1.19391
 Alpha virt. eigenvalues --    1.19546   1.19790   1.20435   1.20453   1.20774
 Alpha virt. eigenvalues --    1.21126   1.22068   1.22196   1.22408   1.22536
 Alpha virt. eigenvalues --    1.22852   1.23425   1.23655   1.24895   1.24940
 Alpha virt. eigenvalues --    1.25105   1.25287   1.25326   1.26083   1.26300
 Alpha virt. eigenvalues --    1.26602   1.26803   1.27414   1.27519   1.28202
 Alpha virt. eigenvalues --    1.28816   1.29013   1.29966   1.29982   1.30708
 Alpha virt. eigenvalues --    1.31377   1.31770   1.32325   1.32993   1.33473
 Alpha virt. eigenvalues --    1.33719   1.34153   1.34430   1.35385   1.35410
 Alpha virt. eigenvalues --    1.35659   1.36190   1.36419   1.36608   1.37954
 Alpha virt. eigenvalues --    1.38162   1.38394   1.39004   1.39114   1.39937
 Alpha virt. eigenvalues --    1.40063   1.40318   1.40977   1.41130   1.42335
 Alpha virt. eigenvalues --    1.42834   1.43531   1.43809   1.44338   1.44446
 Alpha virt. eigenvalues --    1.44533   1.44833   1.45068   1.45226   1.45503
 Alpha virt. eigenvalues --    1.46015   1.46404   1.46967   1.47796   1.47839
 Alpha virt. eigenvalues --    1.48341   1.48824   1.49293   1.50277   1.50281
 Alpha virt. eigenvalues --    1.50381   1.51162   1.51782   1.51993   1.52022
 Alpha virt. eigenvalues --    1.52300   1.52725   1.53221   1.53502   1.53707
 Alpha virt. eigenvalues --    1.54357   1.54368   1.55138   1.55578   1.55952
 Alpha virt. eigenvalues --    1.56185   1.56321   1.56828   1.57364   1.57522
 Alpha virt. eigenvalues --    1.59023   1.59151   1.59835   1.59862   1.60264
 Alpha virt. eigenvalues --    1.60316   1.61418   1.62448   1.62607   1.63146
 Alpha virt. eigenvalues --    1.63313   1.63969   1.64073   1.64902   1.64989
 Alpha virt. eigenvalues --    1.65565   1.66222   1.66843   1.67027   1.67612
 Alpha virt. eigenvalues --    1.68081   1.68479   1.69118   1.69399   1.69443
 Alpha virt. eigenvalues --    1.70024   1.70294   1.70320   1.71109   1.72226
 Alpha virt. eigenvalues --    1.72623   1.72990   1.73183   1.74635   1.75210
 Alpha virt. eigenvalues --    1.75478   1.75906   1.76850   1.77802   1.78119
 Alpha virt. eigenvalues --    1.78289   1.79068   1.79643   1.80203   1.81796
 Alpha virt. eigenvalues --    1.82199   1.83039   1.83303   1.83543   1.83760
 Alpha virt. eigenvalues --    1.84330   1.84373   1.85760   1.86915   1.87340
 Alpha virt. eigenvalues --    1.87952   1.88103   1.88457   1.88719   1.89689
 Alpha virt. eigenvalues --    1.90382   1.90808   1.94347   1.96456   1.96747
 Alpha virt. eigenvalues --    1.97071   1.98671   1.99016   1.99632   2.00726
 Alpha virt. eigenvalues --    2.01911   2.04649   2.04924   2.05676   2.05859
 Alpha virt. eigenvalues --    2.06391   2.07596   2.07794   2.09271   2.09570
 Alpha virt. eigenvalues --    2.10341   2.11270   2.13211   2.13663   2.14164
 Alpha virt. eigenvalues --    2.14333   2.15355   2.16178   2.18155   2.18165
 Alpha virt. eigenvalues --    2.19035   2.19660   2.21088   2.21610   2.22022
 Alpha virt. eigenvalues --    2.22634   2.23216   2.24181   2.24246   2.25066
 Alpha virt. eigenvalues --    2.25498   2.26135   2.26654   2.27767   2.27902
 Alpha virt. eigenvalues --    2.28205   2.29130   2.29859   2.30414   2.31088
 Alpha virt. eigenvalues --    2.32542   2.32635   2.33276   2.33454   2.33781
 Alpha virt. eigenvalues --    2.34760   2.34961   2.35123   2.36072   2.36636
 Alpha virt. eigenvalues --    2.37400   2.38736   2.39845   2.40249   2.40667
 Alpha virt. eigenvalues --    2.43110   2.44212   2.45195   2.45896   2.46357
 Alpha virt. eigenvalues --    2.47856   2.49148   2.49324   2.49968   2.50500
 Alpha virt. eigenvalues --    2.50571   2.51465   2.52563   2.52587   2.53087
 Alpha virt. eigenvalues --    2.53300   2.53469   2.55262   2.56191   2.56382
 Alpha virt. eigenvalues --    2.56529   2.56853   2.57809   2.58466   2.60400
 Alpha virt. eigenvalues --    2.60589   2.61368   2.61420   2.61854   2.63065
 Alpha virt. eigenvalues --    2.63671   2.64031   2.64614   2.65076   2.65267
 Alpha virt. eigenvalues --    2.65458   2.66707   2.67323   2.67654   2.68623
 Alpha virt. eigenvalues --    2.68790   2.69408   2.69752   2.70324   2.70461
 Alpha virt. eigenvalues --    2.71411   2.72078   2.72665   2.73227   2.73333
 Alpha virt. eigenvalues --    2.73868   2.74485   2.74668   2.74920   2.76059
 Alpha virt. eigenvalues --    2.76208   2.76416   2.76710   2.76801   2.77206
 Alpha virt. eigenvalues --    2.77885   2.78697   2.79399   2.80053   2.80330
 Alpha virt. eigenvalues --    2.81010   2.81152   2.82100   2.82136   2.83016
 Alpha virt. eigenvalues --    2.83067   2.84269   2.84512   2.85502   2.85752
 Alpha virt. eigenvalues --    2.85828   2.86154   2.87621   2.88486   2.88709
 Alpha virt. eigenvalues --    2.89299   2.89842   2.89949   2.90199   2.90350
 Alpha virt. eigenvalues --    2.90983   2.91419   2.91783   2.91850   2.92371
 Alpha virt. eigenvalues --    2.93255   2.93794   2.94379   2.94801   2.95176
 Alpha virt. eigenvalues --    2.95244   2.95345   2.96111   2.96855   2.96983
 Alpha virt. eigenvalues --    2.97705   2.98263   2.98477   2.99081   2.99152
 Alpha virt. eigenvalues --    2.99922   3.00286   3.00314   3.00886   3.01901
 Alpha virt. eigenvalues --    3.01904   3.02541   3.02894   3.03307   3.03341
 Alpha virt. eigenvalues --    3.03709   3.03993   3.05084   3.05521   3.06014
 Alpha virt. eigenvalues --    3.06142   3.06420   3.06785   3.07096   3.07335
 Alpha virt. eigenvalues --    3.07371   3.07665   3.08341   3.08523   3.09433
 Alpha virt. eigenvalues --    3.09962   3.10242   3.10773   3.10916   3.11497
 Alpha virt. eigenvalues --    3.11972   3.12455   3.12479   3.13663   3.13735
 Alpha virt. eigenvalues --    3.14187   3.14825   3.14988   3.15096   3.15643
 Alpha virt. eigenvalues --    3.15688   3.16005   3.16203   3.16427   3.16886
 Alpha virt. eigenvalues --    3.17414   3.17426   3.18005   3.18222   3.18598
 Alpha virt. eigenvalues --    3.18685   3.19054   3.19237   3.19424   3.19673
 Alpha virt. eigenvalues --    3.20119   3.20707   3.21069   3.21273   3.21551
 Alpha virt. eigenvalues --    3.21737   3.21895   3.22421   3.22439   3.23283
 Alpha virt. eigenvalues --    3.23763   3.24595   3.25091   3.25506   3.25771
 Alpha virt. eigenvalues --    3.26520   3.27039   3.27471   3.27731   3.28148
 Alpha virt. eigenvalues --    3.28292   3.28757   3.29003   3.29493   3.30083
 Alpha virt. eigenvalues --    3.30383   3.30688   3.31261   3.31644   3.31882
 Alpha virt. eigenvalues --    3.32543   3.33329   3.33762   3.34128   3.34832
 Alpha virt. eigenvalues --    3.35730   3.35931   3.36103   3.36674   3.36940
 Alpha virt. eigenvalues --    3.37583   3.38128   3.38179   3.38832   3.39020
 Alpha virt. eigenvalues --    3.39346   3.39430   3.40187   3.40531   3.41047
 Alpha virt. eigenvalues --    3.41582   3.41681   3.41757   3.42528   3.42981
 Alpha virt. eigenvalues --    3.43657   3.44148   3.44256   3.44857   3.45711
 Alpha virt. eigenvalues --    3.45829   3.46251   3.47326   3.47578   3.47795
 Alpha virt. eigenvalues --    3.48209   3.48506   3.49656   3.49873   3.50665
 Alpha virt. eigenvalues --    3.50957   3.51035   3.51278   3.52182   3.52525
 Alpha virt. eigenvalues --    3.53055   3.53277   3.54312   3.54317   3.54638
 Alpha virt. eigenvalues --    3.55285   3.55970   3.56314   3.57122   3.57218
 Alpha virt. eigenvalues --    3.57660   3.58242   3.58568   3.58884   3.59529
 Alpha virt. eigenvalues --    3.59971   3.60020   3.60691   3.60818   3.61877
 Alpha virt. eigenvalues --    3.62109   3.62157   3.62361   3.63098   3.63484
 Alpha virt. eigenvalues --    3.63556   3.64510   3.64678   3.65641   3.66143
 Alpha virt. eigenvalues --    3.66628   3.66667   3.67637   3.67750   3.68181
 Alpha virt. eigenvalues --    3.68785   3.69107   3.70058   3.70127   3.71215
 Alpha virt. eigenvalues --    3.71321   3.72433   3.73281   3.73483   3.73821
 Alpha virt. eigenvalues --    3.74435   3.74473   3.75257   3.76074   3.76231
 Alpha virt. eigenvalues --    3.76513   3.76880   3.77414   3.77547   3.78145
 Alpha virt. eigenvalues --    3.78187   3.78535   3.79015   3.80097   3.80488
 Alpha virt. eigenvalues --    3.81517   3.81551   3.82089   3.82784   3.83794
 Alpha virt. eigenvalues --    3.83818   3.85179   3.85320   3.85359   3.85580
 Alpha virt. eigenvalues --    3.86610   3.86798   3.87106   3.87373   3.88625
 Alpha virt. eigenvalues --    3.88899   3.89613   3.89660   3.90557   3.91435
 Alpha virt. eigenvalues --    3.91637   3.92069   3.92321   3.92434   3.92890
 Alpha virt. eigenvalues --    3.93160   3.94155   3.94526   3.95402   3.95558
 Alpha virt. eigenvalues --    3.95702   3.96272   3.96482   3.96511   3.96688
 Alpha virt. eigenvalues --    3.97193   3.97725   3.98435   3.98625   3.99462
 Alpha virt. eigenvalues --    3.99652   4.00016   4.00891   4.01019   4.01311
 Alpha virt. eigenvalues --    4.01454   4.01907   4.01936   4.02391   4.02881
 Alpha virt. eigenvalues --    4.03593   4.03704   4.04000   4.04723   4.04920
 Alpha virt. eigenvalues --    4.05524   4.06881   4.07197   4.07325   4.08437
 Alpha virt. eigenvalues --    4.08739   4.09465   4.09471   4.09713   4.10819
 Alpha virt. eigenvalues --    4.11089   4.11401   4.11462   4.11595   4.12151
 Alpha virt. eigenvalues --    4.12601   4.12748   4.12836   4.13265   4.13569
 Alpha virt. eigenvalues --    4.14041   4.14321   4.14897   4.15234   4.15572
 Alpha virt. eigenvalues --    4.15826   4.16144   4.17117   4.17200   4.17429
 Alpha virt. eigenvalues --    4.17690   4.18316   4.18754   4.19132   4.19631
 Alpha virt. eigenvalues --    4.20588   4.20973   4.21089   4.21230   4.21710
 Alpha virt. eigenvalues --    4.22612   4.23176   4.23809   4.24343   4.24805
 Alpha virt. eigenvalues --    4.24877   4.26204   4.26666   4.27194   4.27502
 Alpha virt. eigenvalues --    4.27623   4.28685   4.29456   4.29956   4.30533
 Alpha virt. eigenvalues --    4.30914   4.31493   4.31732   4.31953   4.32395
 Alpha virt. eigenvalues --    4.33011   4.33321   4.34064   4.34467   4.34688
 Alpha virt. eigenvalues --    4.35179   4.35915   4.37560   4.38813   4.38959
 Alpha virt. eigenvalues --    4.39906   4.40003   4.40863   4.41323   4.42787
 Alpha virt. eigenvalues --    4.43527   4.43981   4.44692   4.44892   4.45150
 Alpha virt. eigenvalues --    4.46264   4.46776   4.47786   4.48799   4.48817
 Alpha virt. eigenvalues --    4.48897   4.49158   4.49513   4.50108   4.50591
 Alpha virt. eigenvalues --    4.51713   4.52616   4.52831   4.53092   4.54010
 Alpha virt. eigenvalues --    4.54175   4.55562   4.55998   4.56011   4.57305
 Alpha virt. eigenvalues --    4.59336   4.59735   4.60290   4.60543   4.60986
 Alpha virt. eigenvalues --    4.62065   4.62657   4.63523   4.63542   4.63687
 Alpha virt. eigenvalues --    4.64489   4.64503   4.65067   4.66095   4.66602
 Alpha virt. eigenvalues --    4.67148   4.69783   4.70640   4.70934   4.72118
 Alpha virt. eigenvalues --    4.73715   4.73734   4.74671   4.74999   4.75257
 Alpha virt. eigenvalues --    4.76759   4.78055   4.78457   4.78851   4.79740
 Alpha virt. eigenvalues --    4.80025   4.81137   4.81362   4.81641   4.82344
 Alpha virt. eigenvalues --    4.83370   4.83392   4.84155   4.84559   4.84725
 Alpha virt. eigenvalues --    4.85029   4.85110   4.86082   4.86836   4.87527
 Alpha virt. eigenvalues --    4.87918   4.88445   4.88500   4.89048   4.89649
 Alpha virt. eigenvalues --    4.90313   4.92237   4.92909   4.93305   4.94015
 Alpha virt. eigenvalues --    4.95436   4.95781   4.96994   4.97253   4.97771
 Alpha virt. eigenvalues --    4.98052   4.98843   5.00120   5.00740   5.01415
 Alpha virt. eigenvalues --    5.02814   5.03623   5.04877   5.05705   5.06991
 Alpha virt. eigenvalues --    5.08511   5.08633   5.09729   5.10164   5.10285
 Alpha virt. eigenvalues --    5.10810   5.10925   5.11070   5.13060   5.13808
 Alpha virt. eigenvalues --    5.14268   5.15681   5.16933   5.17226   5.17471
 Alpha virt. eigenvalues --    5.19115   5.19902   5.21051   5.22140   5.23841
 Alpha virt. eigenvalues --    5.24075   5.24303   5.24596   5.25225   5.27561
 Alpha virt. eigenvalues --    5.29073   5.29082   5.29361   5.30124   5.30535
 Alpha virt. eigenvalues --    5.31226   5.31364   5.32256   5.33092   5.33726
 Alpha virt. eigenvalues --    5.34352   5.35477   5.35874   5.36183   5.37054
 Alpha virt. eigenvalues --    5.37127   5.37781   5.37856   5.38400   5.40352
 Alpha virt. eigenvalues --    5.40416   5.41687   5.42101   5.42388   5.44003
 Alpha virt. eigenvalues --    5.44292   5.44630   5.45253   5.46238   5.46282
 Alpha virt. eigenvalues --    5.46829   5.47092   5.48942   5.49220   5.50328
 Alpha virt. eigenvalues --    5.50705   5.51384   5.52325   5.52794   5.53362
 Alpha virt. eigenvalues --    5.53545   5.54283   5.55995   5.56763   5.57245
 Alpha virt. eigenvalues --    5.57996   5.58186   5.58728   5.59010   5.59172
 Alpha virt. eigenvalues --    5.61492   5.61919   5.62784   5.62981   5.63110
 Alpha virt. eigenvalues --    5.64569   5.65427   5.65937   5.66207   5.66397
 Alpha virt. eigenvalues --    5.67910   5.68845   5.69150   5.71853   5.71900
 Alpha virt. eigenvalues --    5.73180   5.74052   5.75689   5.75890   5.77324
 Alpha virt. eigenvalues --    5.78900   5.81011   5.85160   5.85659   5.89743
 Alpha virt. eigenvalues --    5.89999   5.92508   5.94322   6.02495   6.06963
 Alpha virt. eigenvalues --    6.07367   6.08958   6.12435   6.16125   6.22386
 Alpha virt. eigenvalues --    6.25859   6.35888   6.51838   6.59844   6.86222
 Alpha virt. eigenvalues --    6.87164   6.91530   7.47024   7.47783  22.75617
 Alpha virt. eigenvalues --   23.02708  23.10113  23.16864  23.20272  23.23480
 Alpha virt. eigenvalues --   23.27699  23.28596  23.33650  23.37938  23.42872
 Alpha virt. eigenvalues --   23.45989  23.46399  23.50796  23.51285  23.52797
 Alpha virt. eigenvalues --   23.53255  23.56764  23.57561  23.58405  23.59811
 Alpha virt. eigenvalues --   23.60734  23.62748  23.72460  24.00581  24.19655
 Alpha virt. eigenvalues --   32.24524  33.32189  33.32597  44.75820
          Condensed to atoms (all electrons):
 Mulliken charges:
               1
     1  N   -0.032911
     2  C   -0.279984
     3  C    0.226045
     4  C   -0.000863
     5  C   -0.053135
     6  C   -0.070168
     7  C    0.154251
     8  N   -0.080710
     9  C   -0.141478
    10  C   -0.260408
    11  C   -0.266892
    12  C   -0.144092
    13  C   -0.268449
    14  C   -0.266498
    15  C   -0.014052
    16  C    0.191651
    17  O   -0.245307
    18  C    0.191636
    19  C   -0.014080
    20  C    0.154260
    21  N   -0.080713
    22  C   -0.141456
    23  C   -0.260398
    24  C   -0.266921
    25  C   -0.144125
    26  C   -0.268456
    27  C   -0.266471
    28  C   -0.070129
    29  C   -0.053131
    30  C   -0.000863
    31  H    0.140904
    32  H    0.158711
    33  H    0.147251
    34  H    0.134974
    35  H    0.139676
    36  H    0.157644
    37  H    0.131066
    38  H    0.159248
    39  H    0.147159
    40  H    0.134459
    41  H    0.139521
    42  H    0.162100
    43  H    0.134202
    44  H    0.158713
    45  H    0.147243
    46  H    0.134977
    47  H    0.139679
    48  H    0.157642
    49  H    0.131068
    50  H    0.159255
    51  H    0.147169
    52  H    0.134459
    53  H    0.139518
    54  H    0.162103
    55  H    0.134197
    56  H    0.140907
 Sum of Mulliken charges =   1.00000
 Mulliken charges with hydrogens summed into heavy atoms:
               1
     1  N   -0.032911
     2  C   -0.279984
     3  C    0.226045
     4  C   -0.000863
     5  C    0.087769
     6  C   -0.070168
     7  C    0.154251
     8  N   -0.080710
     9  C    0.164484
    10  C    0.014242
    11  C    0.021817
    12  C    0.162316
    13  C    0.005531
    14  C    0.029804
    15  C   -0.014052
    16  C    0.191651
    17  O   -0.245307
    18  C    0.191636
    19  C   -0.014080
    20  C    0.154260
    21  N   -0.080713
    22  C    0.164501
    23  C    0.014258
    24  C    0.021789
    25  C    0.162299
    26  C    0.005521
    27  C    0.029828
    28  C   -0.070129
    29  C    0.087776
    30  C   -0.000863
 Electronic spatial extent (au):  <R**2>=          14428.9255
 Charge=              1.0000 electrons
 Dipole moment (field-independent basis, Debye):
    X=              0.0002    Y=              7.5102    Z=              0.0007  Tot=              7.5102
 Quadrupole moment (field-independent basis, Debye-Ang):
   XX=            -34.2327   YY=           -165.0517   ZZ=           -173.2645
   XY=              0.0000   XZ=              0.0890   YZ=             -0.0004
 Traceless Quadrupole moment (field-independent basis, Debye-Ang):
   XX=             89.9502   YY=            -40.8687   ZZ=            -49.0815
   XY=              0.0000   XZ=              0.0890   YZ=             -0.0004
 Octapole moment (field-independent basis, Debye-Ang**2):
  XXX=              0.0093  YYY=            195.3130  ZZZ=              0.0006  XYY=              0.0008
  XXY=             64.2804  XXZ=              0.0156  XZZ=              0.0003  YZZ=             15.0936
  YYZ=              0.0035  XYZ=             -3.5194
 Hexadecapole moment (field-independent basis, Debye-Ang**3):
 XXXX=         -10436.5028 YYYY=          -4621.0929 ZZZZ=           -344.6813 XXXY=             -0.0003
 XXXZ=             28.9449 YYYX=             -0.0056 YYYZ=             -0.0192 ZZZX=             -0.1981
 ZZZY=             -0.0002 XXYY=          -2665.0581 XXZZ=          -2525.4052 YYZZ=           -753.0680
 XXYZ=              0.0057 YYXZ=             -5.7574 ZZXY=              0.0006
 N-N= 2.830538945327D+03 E-N=-8.528289713949D+03  KE= 1.238601169665D+03
 No NMR shielding tensors so no spin-rotation constants.
 Leave Link  601 at Sat Nov  8 09:39:29 2025, MaxMem= 30870077440 cpu:             114.1 elap:               2.1
 (Enter /public/software/gauss/g16/l9999.exe)
 1\1\GINC-CU303\SP\RM062X\def2TZVPP\C26H26N3O1(1+)\BAIDING\08-Nov-2025\
 0\\#p M062X/DEF2TZVPP scrf=(solvent=water) em=GD3\\Energy calculation 
 for M100480310\\1,1\N,0,-0.000017,4.578745,0.000086\C,0,-0.00001,3.413
 397,0.000019\C,0,0.000004,1.982068,-0.00002\C,0,-1.228094,1.293129,-0.
 027154\C,0,-2.504615,1.917497,-0.053833\C,0,-3.665657,1.194606,-0.0802
 54\C,0,-3.605456,-0.252902,-0.05286\N,0,-4.750377,-0.972671,-0.029685\
 C,0,-6.086586,-0.364797,0.092601\C,0,-6.03767,1.049054,0.649651\C,0,-5
 .01286,1.869713,-0.132734\C,0,-4.759849,-2.44328,-0.083784\C,0,-3.5041
 34,-3.002399,-0.732177\C,0,-2.25966,-2.421255,-0.06087\C,0,-2.33771,-0
 .913066,-0.048197\C,0,-1.199223,-0.132174,-0.029275\O,0,0.000007,-0.79
 2544,0.00005\C,0,1.199242,-0.132163,0.029311\C,0,2.337722,-0.913064,0.
 048241\C,0,3.605469,-0.252896,0.052843\N,0,4.750399,-0.972637,0.029859
 \C,0,6.086615,-0.364789,-0.092756\C,0,6.037601,1.049065,-0.649783\C,0,
 5.012869,1.869689,0.132745\C,0,4.759823,-2.443261,0.083671\C,0,3.50418
 7,-3.002416,0.732175\C,0,2.259639,-2.421257,0.061014\C,0,3.665653,1.19
 4611,0.08025\C,0,2.504617,1.917509,0.053825\C,0,1.2281,1.293135,0.0271
 37\H,0,-2.55571,3.002056,-0.058262\H,0,-6.566328,-0.374372,-0.895052\H
 ,0,-6.676214,-1.016633,0.744287\H,0,-7.034998,1.491128,0.575379\H,0,-5
 .764175,1.022075,1.710534\H,0,-5.341393,1.950573,-1.1783\H,0,-4.931487
 ,2.888502,0.255897\H,0,-4.877312,-2.832323,0.93653\H,0,-5.649882,-2.73
 825,-0.647309\H,0,-3.517298,-4.092343,-0.646478\H,0,-3.500486,-2.75446
 1,-1.799571\H,0,-2.181123,-2.800501,0.967034\H,0,-1.355846,-2.743536,-
 0.583578\H,0,6.566592,-0.374405,0.894777\H,0,6.676046,-1.016636,-0.744
 605\H,0,7.034929,1.49116,-0.575646\H,0,5.763958,1.022097,-1.71063\H,0,
 5.341467,1.950422,1.178301\H,0,4.931508,2.888518,-0.255776\H,0,4.87707
 8,-2.832101,-0.936746\H,0,5.649939,-2.738372,0.646983\H,0,3.517344,-4.
 092358,0.64645\H,0,3.500657,-2.754508,1.799577\H,0,2.180928,-2.80055,-
 0.966858\H,0,1.355895,-2.743476,0.583881\H,0,2.555709,3.002068,0.05825
 2\\Version=ES64L-G16RevA.03\State=1-A\HF=-1245.7396401\RMSD=3.651e-09\
 Dipole=0.0000971,-2.9547239,-0.0002839\Quadrupole=66.875797,-30.384904
 5,-36.4908925,-0.0000091,-0.0662054,-0.0003077\PG=C01 [X(C26H26N3O1)]\
 \@


 IF YOU BELIEVE CERTAIN WORDS, YOU BELIEVE THEIR HIDDEN ARGUMENTS.
 WHEN YOU BELIEVE SOMETHING IS RIGHT OR WRONG, TRUE OR FALSE, 
 YOU BELIEVE THE ASSUMPTIONS IN THE WORDS WHICH EXPRESS THE ARGUMENTS.
 SUCH ASSUMPTIONS ARE OFTEN FULL OF HOLES, BUT REMAIN MOST PRECIOUS 
 TO THE CONVINCED.

                 -- THE OPEN-ENDED PROOF FROM THE PANOPLIA PROPHETICA
                    CHILDREN OF DUNE BY FRANK HERBERT
 Job cpu time:       0 days 12 hours 34 minutes 55.7 seconds.
 Elapsed time:       0 days  0 hours 11 minutes 57.0 seconds.
 File lengths (MBytes):  RWF=   1096 Int=      0 D2E=      0 Chk=     99 Scr=      1
 Normal termination of Gaussian 16 at Sat Nov  8 09:39:29 2025.
