 Entering Gaussian System, Link 0=g16
 Input=M100034661_reduced_sp.gjf
 Output=M100034661_reduced_sp.log
 Initial command:
 /public/software/gauss/g16/l1.exe "/public/home/baiding/1101_v2_sp/tmp_M100034661_reduced_sp_1568608/Gau-4175625.inp" -scrdir="/public/home/baiding/1101_v2_sp/tmp_M100034661_reduced_sp_1568608/"
 Entering Link 1 = /public/software/gauss/g16/l1.exe PID=   4175626.
  
 Copyright (c) 1988,1990,1992,1993,1995,1998,2003,2009,2016,
            Gaussian, Inc.  All Rights Reserved.
  
 This is part of the Gaussian(R) 16 program.  It is based on
 the Gaussian(R) 09 system (copyright 2009, Gaussian, Inc.),
 the Gaussian(R) 03 system (copyright 2003, Gaussian, Inc.),
 the Gaussian(R) 98 system (copyright 1998, Gaussian, Inc.),
 the Gaussian(R) 94 system (copyright 1995, Gaussian, Inc.),
 the Gaussian 92(TM) system (copyright 1992, Gaussian, Inc.),
 the Gaussian 90(TM) system (copyright 1990, Gaussian, Inc.),
 the Gaussian 88(TM) system (copyright 1988, Gaussian, Inc.),
 the Gaussian 86(TM) system (copyright 1986, Carnegie Mellon
 University), and the Gaussian 82(TM) system (copyright 1983,
 Carnegie Mellon University). Gaussian is a federally registered
 trademark of Gaussian, Inc.
  
 This software contains proprietary and confidential information,
 including trade secrets, belonging to Gaussian, Inc.
  
 This software is provided under written license and may be
 used, copied, transmitted, or stored only in accord with that
 written license.
  
 The following legend is applicable only to US Government
 contracts under FAR:
  
                    RESTRICTED RIGHTS LEGEND
  
 Use, reproduction and disclosure by the US Government is
 subject to restrictions as set forth in subparagraphs (a)
 and (c) of the Commercial Computer Software - Restricted
 Rights clause in FAR 52.227-19.
  
 Gaussian, Inc.
 340 Quinnipiac St., Bldg. 40, Wallingford CT 06492
  
  
 ---------------------------------------------------------------
 Warning -- This program may not be used in any manner that
 competes with the business of Gaussian, Inc. or will provide
 assistance to any competitor of Gaussian, Inc.  The licensee
 of this program is prohibited from giving any competitor of
 Gaussian, Inc. access to this program.  By using this program,
 the user acknowledges that Gaussian, Inc. is engaged in the
 business of creating and licensing software in the field of
 computational chemistry and represents and warrants to the
 licensee that it is not a competitor of Gaussian, Inc. and that
 it will not use this program in any manner prohibited above.
 ---------------------------------------------------------------
  

 Cite this work as:
 Gaussian 16, Revision A.03,
 M. J. Frisch, G. W. Trucks, H. B. Schlegel, G. E. Scuseria, 
 M. A. Robb, J. R. Cheeseman, G. Scalmani, V. Barone, 
 G. A. Petersson, H. Nakatsuji, X. Li, M. Caricato, A. V. Marenich, 
 J. Bloino, B. G. Janesko, R. Gomperts, B. Mennucci, H. P. Hratchian, 
 J. V. Ortiz, A. F. Izmaylov, J. L. Sonnenberg, D. Williams-Young, 
 F. Ding, F. Lipparini, F. Egidi, J. Goings, B. Peng, A. Petrone, 
 T. Henderson, D. Ranasinghe, V. G. Zakrzewski, J. Gao, N. Rega, 
 G. Zheng, W. Liang, M. Hada, M. Ehara, K. Toyota, R. Fukuda, 
 J. Hasegawa, M. Ishida, T. Nakajima, Y. Honda, O. Kitao, H. Nakai, 
 T. Vreven, K. Throssell, J. A. Montgomery, Jr., J. E. Peralta, 
 F. Ogliaro, M. J. Bearpark, J. J. Heyd, E. N. Brothers, K. N. Kudin, 
 V. N. Staroverov, T. A. Keith, R. Kobayashi, J. Normand, 
 K. Raghavachari, A. P. Rendell, J. C. Burant, S. S. Iyengar, 
 J. Tomasi, M. Cossi, J. M. Millam, M. Klene, C. Adamo, R. Cammi, 
 J. W. Ochterski, R. L. Martin, K. Morokuma, O. Farkas, 
 J. B. Foresman, and D. J. Fox, Gaussian, Inc., Wallingford CT, 2016.
 
 ******************************************
 Gaussian 16:  ES64L-G16RevA.03 25-Dec-2016
                 6-Nov-2025 
 ******************************************
 %nprocshared=64
 Will use up to   64 processors via shared memory.
 %mem=230GB
 %chk=M100034661_reduced_sp.chk
 ----------------------------------------------
 #p M062X/DEF2TZVPP scrf=(solvent=water) em=GD3
 ----------------------------------------------
 1/38=1,172=1/1;
 2/12=2,17=6,18=5,40=1/2;
 3/5=44,7=202,11=2,25=1,30=1,70=2201,72=1,74=-55,124=31/1,2,3;
 4//1;
 5/5=2,38=5,53=1/2;
 6/7=2,8=2,9=2,10=2,28=1/1;
 99/5=1,9=1/99;
 Leave Link    1 at Thu Nov  6 20:05:25 2025, MaxMem= 30870077440 cpu:              24.2 elap:               0.4
 (Enter /public/software/gauss/g16/l101.exe)
 -----------------------------------------
 Energy calculation for M100034661_reduced
 -----------------------------------------
 Symbolic Z-matrix:
 Charge = -1 Multiplicity = 2
 C                     5.01911   5.98828  -0.09536 
 C                     4.87221   5.01642  -1.27921 
 C                     4.94152   3.56604  -0.87809 
 C                     6.10834   2.79484  -0.78226 
 C                     7.47688   3.27238  -1.17881 
 C                     5.71462   1.50461  -0.31164 
 C                     6.48081   0.3322   -0.06248 
 C                     5.82671  -0.90214   0.20675 
 C                     6.34206  -2.14869   0.67738 
 C                     7.75571  -2.50054   1.04585 
 C                     5.24898  -3.01703   0.80785 
 C                     5.31389  -4.4644    1.21993 
 C                     5.51337  -5.4304    0.03893 
 C                     4.0762   -2.31228   0.43249 
 C                     2.77412  -2.91798   0.42242 
 C                     1.57765  -2.4984   -0.08184 
 C                     0.33364  -3.25676  -0.02235 
 C                     0.15397  -4.43245   0.74269 
 C                    -1.04353  -5.13237   0.73802 
 C                    -2.13591  -4.70134  -0.04211 
 C                    -1.9809   -3.52248  -0.79449 
 C                    -0.78108  -2.82082  -0.77202 
 N                    -3.34281  -5.43704  -0.05958 
 C                    -3.31664  -6.86035   0.03563 
 C                    -4.18829  -7.5324    0.90993 
 C                    -4.18111  -8.91887   0.99172 
 C                    -3.28724  -9.67035   0.21486 
 O                    -3.3528   -11.03383   0.37458 
 C                    -2.46704  -11.8401  -0.40595 
 C                    -2.40676  -9.01339  -0.65198 
 C                    -2.43601  -7.6202   -0.74389 
 C                    -4.60168  -4.78551  -0.20484 
 C                    -4.91281  -3.63379   0.52917 
 C                    -6.15286  -3.00466   0.39633 
 C                    -7.11676  -3.54225  -0.46401 
 O                    -8.37327  -3.0193   -0.65468 
 C                    -8.72812  -1.84495   0.08029 
 C                    -6.81689  -4.69786  -1.19943 
 C                    -5.5732   -5.30393  -1.07926 
 N                     4.4425   -1.015     0.08097 
 B                     3.49707   0.20066  -0.02598 
 F                     2.68077   0.23245   1.1318 
 F                     2.65724   0.0949   -1.16278 
 N                     4.329     1.49526  -0.15371 
 C                     3.84338   2.75915  -0.48246 
 C                     2.49442   3.24857  -0.4358 
 C                     1.34795   2.70552   0.0661 
 C                     0.03422   3.33638   0.04528 
 C                    -1.05241   2.67542   0.65972 
 C                    -2.32888   3.22258   0.69441 
 C                    -2.59032   4.46915   0.09738 
 C                    -1.52063   5.13744  -0.53145 
 C                    -0.24704   4.58713  -0.5522 
 N                    -3.88828   5.03034   0.11973 
 C                    -4.06894   6.43688   0.25025 
 C                    -3.32048   7.17665   1.18346 
 C                    -3.49974   8.54811   1.30942 
 C                    -4.44827   9.21588   0.5211 
 O                    -4.5573    10.57055   0.7295 
 C                    -5.50184   11.29253  -0.06401 
 C                    -5.20871   8.49023  -0.40209 
 C                    -5.00703   7.115    -0.53821 
 C                    -5.03271   4.18713   0.01114 
 C                    -6.11744   4.33244   0.88398 
 C                    -7.249     3.52116   0.77233 
 C                    -7.29746   2.53154  -0.21525 
 O                    -8.35508   1.67662  -0.41019 
 C                    -9.47413   1.78392   0.47373 
 C                    -6.21212   2.37171  -1.08909 
 C                    -5.09967   3.19594  -0.98366 
 C                     7.96009   0.39674  -0.0812 
 C                     8.66128   1.20051   0.84626 
 C                     10.04555   1.25785   0.8397 
 C                     10.7807   0.52019  -0.10863 
 C                     12.24172   0.5683   -0.14165 
 O                     12.9452   1.22462   0.62862 
 C                     10.0933  -0.27843  -1.03959 
 C                     8.70605  -0.34324  -1.02125 
 H                     4.97051   7.02905  -0.43421 
 H                     4.22275   5.83422   0.64043 
 H                     5.9772    5.84413   0.41546 
 H                     3.92919   5.22388  -1.79651 
 H                     5.66166   5.22859  -2.00876 
 H                     7.39653   4.13564  -1.84561 
 H                     8.08786   3.584    -0.32327 
 H                     8.04388   2.50172  -1.7071 
 H                     7.76661  -3.36043   1.72172 
 H                     8.37244  -2.76601   0.17888 
 H                     8.26453  -1.67767   1.55428 
 H                     6.13619  -4.60303   1.93055 
 H                     4.40436  -4.74626   1.76154 
 H                     4.68829  -5.35147  -0.67682 
 H                     6.44225  -5.20921  -0.49764 
 H                     5.5628   -6.46854   0.38566 
 H                     2.79109  -3.90927   0.86851 
 H                     1.52209  -1.55418  -0.60983 
 H                     0.95876  -4.79705   1.37384 
 H                    -1.1433   -6.02264   1.34985 
 H                    -2.802    -3.16077  -1.4042 
 H                    -0.68996  -1.91888  -1.37215 
 H                    -4.87628  -6.96211   1.52555 
 H                    -4.8559   -9.43694   1.66593 
 H                    -2.64663  -11.70757  -1.47869 
 H                    -1.41855  -11.61448  -0.18163 
 H                    -2.68141  -12.87312  -0.12876 
 H                    -1.71011  -9.56831  -1.26852 
 H                    -1.76061  -7.12084  -1.43093 
 H                    -4.18051  -3.21943   1.21439 
 H                    -6.35797  -2.11413   0.978 
 H                    -8.68169  -2.02075   1.1609 
 H                    -8.08386  -0.99937  -0.18113 
 H                    -9.75658  -1.6182   -0.20397 
 H                    -7.56688  -5.10311  -1.87145 
 H                    -5.35129  -6.19118  -1.66297 
 H                     2.41613   4.24797  -0.85589 
 H                     1.38397   1.73699   0.54902 
 H                    -0.88016   1.7128    1.13472 
 H                    -3.13073   2.68563   1.19022 
 H                    -1.69781   6.09309  -1.01383 
 H                     0.53993   5.13564  -1.06084 
 H                    -2.59447   6.67192   1.81226 
 H                    -2.92051   9.117     2.02999 
 H                    -6.52379   10.93543   0.10613 
 H                    -5.42558   12.3332   0.25404 
 H                    -5.26464   11.22104  -1.13144 
 H                    -5.94556   8.97954  -1.02746 
 H                    -5.59264   6.56447  -1.26719 
 H                    -6.08233   5.08929   1.66099 
 H                    -8.07098   3.66151   1.46375 
 H                    -9.18417   1.58524   1.51131 
 H                    -9.93843   2.77421   0.40853 
 H                    -10.18853   1.02851   0.14481 
 H                    -6.26317   1.60657  -1.85739 
 H                    -4.2725    3.07226  -1.675 
 H                     8.09924   1.76617   1.58272 
 H                     10.57758   1.86427   1.56618 
 H                     12.71053  -0.04674  -0.93432 
 H                     10.65744  -0.84092  -1.77934 
 H                     8.18231  -0.95762  -1.74658 
 
 ITRead=  0  0  0  0  0  0  0  0  0  0  0  0  0  0  0  0  0  0  0  0
 ITRead=  0  0  0  0  0  0  0  0  0  0  0  0  0  0  0  0  0  0  0  0
 ITRead=  0  0  0  0  0  0  0  0  0  0  0  0  0  0  0  0  0  0  0  0
 ITRead=  0  0  0  0  0  0  0  0  0  0  0  0  0  0  0  0  0  0  0  0
 ITRead=  0  0  0  0  0  0  0  0  0  0  0  0  0  0  0  0  0  0  0  0
 ITRead=  0  0  0  0  0  0  0  0  0  0  0  0  0  0  0  0  0  0  0  0
 ITRead=  0  0  0  0  0  0  0  0  0  0  0  0  0  0  0  0  0  0  0
 MicOpt= -1 -1 -1 -1 -1 -1 -1 -1 -1 -1 -1 -1 -1 -1 -1 -1 -1 -1 -1 -1
 MicOpt= -1 -1 -1 -1 -1 -1 -1 -1 -1 -1 -1 -1 -1 -1 -1 -1 -1 -1 -1 -1
 MicOpt= -1 -1 -1 -1 -1 -1 -1 -1 -1 -1 -1 -1 -1 -1 -1 -1 -1 -1 -1 -1
 MicOpt= -1 -1 -1 -1 -1 -1 -1 -1 -1 -1 -1 -1 -1 -1 -1 -1 -1 -1 -1 -1
 MicOpt= -1 -1 -1 -1 -1 -1 -1 -1 -1 -1 -1 -1 -1 -1 -1 -1 -1 -1 -1 -1
 MicOpt= -1 -1 -1 -1 -1 -1 -1 -1 -1 -1 -1 -1 -1 -1 -1 -1 -1 -1 -1 -1
 MicOpt= -1 -1 -1 -1 -1 -1 -1 -1 -1 -1 -1 -1 -1 -1 -1 -1 -1 -1 -1
 NAtoms=    139 NQM=      139 NQMF=       0 NMMI=      0 NMMIF=      0
                NMic=       0 NMicF=      0.
                    Isotopes and Nuclear Properties:
 (Nuclear quadrupole moments (NQMom) in fm**2, nuclear magnetic moments (NMagM)
  in nuclear magnetons)

  Atom         1           2           3           4           5           6           7           8           9          10
 IAtWgt=          12          12          12          12          12          12          12          12          12          12
 AtmWgt=  12.0000000  12.0000000  12.0000000  12.0000000  12.0000000  12.0000000  12.0000000  12.0000000  12.0000000  12.0000000
 NucSpn=           0           0           0           0           0           0           0           0           0           0
 AtZEff=  -0.0000000  -0.0000000  -0.0000000  -0.0000000  -0.0000000  -0.0000000  -0.0000000  -0.0000000  -0.0000000  -0.0000000
 NQMom=    0.0000000   0.0000000   0.0000000   0.0000000   0.0000000   0.0000000   0.0000000   0.0000000   0.0000000   0.0000000
 NMagM=    0.0000000   0.0000000   0.0000000   0.0000000   0.0000000   0.0000000   0.0000000   0.0000000   0.0000000   0.0000000
 AtZNuc=   6.0000000   6.0000000   6.0000000   6.0000000   6.0000000   6.0000000   6.0000000   6.0000000   6.0000000   6.0000000

  Atom        11          12          13          14          15          16          17          18          19          20
 IAtWgt=          12          12          12          12          12          12          12          12          12          12
 AtmWgt=  12.0000000  12.0000000  12.0000000  12.0000000  12.0000000  12.0000000  12.0000000  12.0000000  12.0000000  12.0000000
 NucSpn=           0           0           0           0           0           0           0           0           0           0
 AtZEff=  -0.0000000  -0.0000000  -0.0000000  -0.0000000  -0.0000000  -0.0000000  -0.0000000  -0.0000000  -0.0000000  -0.0000000
 NQMom=    0.0000000   0.0000000   0.0000000   0.0000000   0.0000000   0.0000000   0.0000000   0.0000000   0.0000000   0.0000000
 NMagM=    0.0000000   0.0000000   0.0000000   0.0000000   0.0000000   0.0000000   0.0000000   0.0000000   0.0000000   0.0000000
 AtZNuc=   6.0000000   6.0000000   6.0000000   6.0000000   6.0000000   6.0000000   6.0000000   6.0000000   6.0000000   6.0000000

  Atom        21          22          23          24          25          26          27          28          29          30
 IAtWgt=          12          12          14          12          12          12          12          16          12          12
 AtmWgt=  12.0000000  12.0000000  14.0030740  12.0000000  12.0000000  12.0000000  12.0000000  15.9949146  12.0000000  12.0000000
 NucSpn=           0           0           2           0           0           0           0           0           0           0
 AtZEff=  -0.0000000  -0.0000000  -0.0000000  -0.0000000  -0.0000000  -0.0000000  -0.0000000  -0.0000000  -0.0000000  -0.0000000
 NQMom=    0.0000000   0.0000000   2.0440000   0.0000000   0.0000000   0.0000000   0.0000000   0.0000000   0.0000000   0.0000000
 NMagM=    0.0000000   0.0000000   0.4037610   0.0000000   0.0000000   0.0000000   0.0000000   0.0000000   0.0000000   0.0000000
 AtZNuc=   6.0000000   6.0000000   7.0000000   6.0000000   6.0000000   6.0000000   6.0000000   8.0000000   6.0000000   6.0000000

  Atom        31          32          33          34          35          36          37          38          39          40
 IAtWgt=          12          12          12          12          12          16          12          12          12          14
 AtmWgt=  12.0000000  12.0000000  12.0000000  12.0000000  12.0000000  15.9949146  12.0000000  12.0000000  12.0000000  14.0030740
 NucSpn=           0           0           0           0           0           0           0           0           0           2
 AtZEff=  -0.0000000  -0.0000000  -0.0000000  -0.0000000  -0.0000000  -0.0000000  -0.0000000  -0.0000000  -0.0000000  -0.0000000
 NQMom=    0.0000000   0.0000000   0.0000000   0.0000000   0.0000000   0.0000000   0.0000000   0.0000000   0.0000000   2.0440000
 NMagM=    0.0000000   0.0000000   0.0000000   0.0000000   0.0000000   0.0000000   0.0000000   0.0000000   0.0000000   0.4037610
 AtZNuc=   6.0000000   6.0000000   6.0000000   6.0000000   6.0000000   8.0000000   6.0000000   6.0000000   6.0000000   7.0000000

  Atom        41          42          43          44          45          46          47          48          49          50
 IAtWgt=          11          19          19          14          12          12          12          12          12          12
 AtmWgt=  11.0093053  18.9984033  18.9984033  14.0030740  12.0000000  12.0000000  12.0000000  12.0000000  12.0000000  12.0000000
 NucSpn=           3           1           1           2           0           0           0           0           0           0
 AtZEff=  -0.0000000  -0.0000000  -0.0000000  -0.0000000  -0.0000000  -0.0000000  -0.0000000  -0.0000000  -0.0000000  -0.0000000
 NQMom=    4.0590000   0.0000000   0.0000000   2.0440000   0.0000000   0.0000000   0.0000000   0.0000000   0.0000000   0.0000000
 NMagM=    2.6886370   2.6288670   2.6288670   0.4037610   0.0000000   0.0000000   0.0000000   0.0000000   0.0000000   0.0000000
 AtZNuc=   5.0000000   9.0000000   9.0000000   7.0000000   6.0000000   6.0000000   6.0000000   6.0000000   6.0000000   6.0000000

  Atom        51          52          53          54          55          56          57          58          59          60
 IAtWgt=          12          12          12          14          12          12          12          12          16          12
 AtmWgt=  12.0000000  12.0000000  12.0000000  14.0030740  12.0000000  12.0000000  12.0000000  12.0000000  15.9949146  12.0000000
 NucSpn=           0           0           0           2           0           0           0           0           0           0
 AtZEff=  -0.0000000  -0.0000000  -0.0000000  -0.0000000  -0.0000000  -0.0000000  -0.0000000  -0.0000000  -0.0000000  -0.0000000
 NQMom=    0.0000000   0.0000000   0.0000000   2.0440000   0.0000000   0.0000000   0.0000000   0.0000000   0.0000000   0.0000000
 NMagM=    0.0000000   0.0000000   0.0000000   0.4037610   0.0000000   0.0000000   0.0000000   0.0000000   0.0000000   0.0000000
 AtZNuc=   6.0000000   6.0000000   6.0000000   7.0000000   6.0000000   6.0000000   6.0000000   6.0000000   8.0000000   6.0000000

  Atom        61          62          63          64          65          66          67          68          69          70
 IAtWgt=          12          12          12          12          12          12          16          12          12          12
 AtmWgt=  12.0000000  12.0000000  12.0000000  12.0000000  12.0000000  12.0000000  15.9949146  12.0000000  12.0000000  12.0000000
 NucSpn=           0           0           0           0           0           0           0           0           0           0
 AtZEff=  -0.0000000  -0.0000000  -0.0000000  -0.0000000  -0.0000000  -0.0000000  -0.0000000  -0.0000000  -0.0000000  -0.0000000
 NQMom=    0.0000000   0.0000000   0.0000000   0.0000000   0.0000000   0.0000000   0.0000000   0.0000000   0.0000000   0.0000000
 NMagM=    0.0000000   0.0000000   0.0000000   0.0000000   0.0000000   0.0000000   0.0000000   0.0000000   0.0000000   0.0000000
 AtZNuc=   6.0000000   6.0000000   6.0000000   6.0000000   6.0000000   6.0000000   8.0000000   6.0000000   6.0000000   6.0000000

  Atom        71          72          73          74          75          76          77          78          79          80
 IAtWgt=          12          12          12          12          12          16          12          12           1           1
 AtmWgt=  12.0000000  12.0000000  12.0000000  12.0000000  12.0000000  15.9949146  12.0000000  12.0000000   1.0078250   1.0078250
 NucSpn=           0           0           0           0           0           0           0           0           1           1
 AtZEff=  -0.0000000  -0.0000000  -0.0000000  -0.0000000  -0.0000000  -0.0000000  -0.0000000  -0.0000000  -0.0000000  -0.0000000
 NQMom=    0.0000000   0.0000000   0.0000000   0.0000000   0.0000000   0.0000000   0.0000000   0.0000000   0.0000000   0.0000000
 NMagM=    0.0000000   0.0000000   0.0000000   0.0000000   0.0000000   0.0000000   0.0000000   0.0000000   2.7928460   2.7928460
 AtZNuc=   6.0000000   6.0000000   6.0000000   6.0000000   6.0000000   8.0000000   6.0000000   6.0000000   1.0000000   1.0000000

  Atom        81          82          83          84          85          86          87          88          89          90
 IAtWgt=           1           1           1           1           1           1           1           1           1           1
 AtmWgt=   1.0078250   1.0078250   1.0078250   1.0078250   1.0078250   1.0078250   1.0078250   1.0078250   1.0078250   1.0078250
 NucSpn=           1           1           1           1           1           1           1           1           1           1
 AtZEff=  -0.0000000  -0.0000000  -0.0000000  -0.0000000  -0.0000000  -0.0000000  -0.0000000  -0.0000000  -0.0000000  -0.0000000
 NQMom=    0.0000000   0.0000000   0.0000000   0.0000000   0.0000000   0.0000000   0.0000000   0.0000000   0.0000000   0.0000000
 NMagM=    2.7928460   2.7928460   2.7928460   2.7928460   2.7928460   2.7928460   2.7928460   2.7928460   2.7928460   2.7928460
 AtZNuc=   1.0000000   1.0000000   1.0000000   1.0000000   1.0000000   1.0000000   1.0000000   1.0000000   1.0000000   1.0000000

  Atom        91          92          93          94          95          96          97          98          99         100
 IAtWgt=           1           1           1           1           1           1           1           1           1           1
 AtmWgt=   1.0078250   1.0078250   1.0078250   1.0078250   1.0078250   1.0078250   1.0078250   1.0078250   1.0078250   1.0078250
 NucSpn=           1           1           1           1           1           1           1           1           1           1
 AtZEff=  -0.0000000  -0.0000000  -0.0000000  -0.0000000  -0.0000000  -0.0000000  -0.0000000  -0.0000000  -0.0000000  -0.0000000
 NQMom=    0.0000000   0.0000000   0.0000000   0.0000000   0.0000000   0.0000000   0.0000000   0.0000000   0.0000000   0.0000000
 NMagM=    2.7928460   2.7928460   2.7928460   2.7928460   2.7928460   2.7928460   2.7928460   2.7928460   2.7928460   2.7928460
 AtZNuc=   1.0000000   1.0000000   1.0000000   1.0000000   1.0000000   1.0000000   1.0000000   1.0000000   1.0000000   1.0000000

  Atom       101         102         103         104         105         106         107         108         109         110
 IAtWgt=           1           1           1           1           1           1           1           1           1           1
 AtmWgt=   1.0078250   1.0078250   1.0078250   1.0078250   1.0078250   1.0078250   1.0078250   1.0078250   1.0078250   1.0078250
 NucSpn=           1           1           1           1           1           1           1           1           1           1
 AtZEff=  -0.0000000  -0.0000000  -0.0000000  -0.0000000  -0.0000000  -0.0000000  -0.0000000  -0.0000000  -0.0000000  -0.0000000
 NQMom=    0.0000000   0.0000000   0.0000000   0.0000000   0.0000000   0.0000000   0.0000000   0.0000000   0.0000000   0.0000000
 NMagM=    2.7928460   2.7928460   2.7928460   2.7928460   2.7928460   2.7928460   2.7928460   2.7928460   2.7928460   2.7928460
 AtZNuc=   1.0000000   1.0000000   1.0000000   1.0000000   1.0000000   1.0000000   1.0000000   1.0000000   1.0000000   1.0000000

  Atom       111         112         113         114         115         116         117         118         119         120
 IAtWgt=           1           1           1           1           1           1           1           1           1           1
 AtmWgt=   1.0078250   1.0078250   1.0078250   1.0078250   1.0078250   1.0078250   1.0078250   1.0078250   1.0078250   1.0078250
 NucSpn=           1           1           1           1           1           1           1           1           1           1
 AtZEff=  -0.0000000  -0.0000000  -0.0000000  -0.0000000  -0.0000000  -0.0000000  -0.0000000  -0.0000000  -0.0000000  -0.0000000
 NQMom=    0.0000000   0.0000000   0.0000000   0.0000000   0.0000000   0.0000000   0.0000000   0.0000000   0.0000000   0.0000000
 NMagM=    2.7928460   2.7928460   2.7928460   2.7928460   2.7928460   2.7928460   2.7928460   2.7928460   2.7928460   2.7928460
 AtZNuc=   1.0000000   1.0000000   1.0000000   1.0000000   1.0000000   1.0000000   1.0000000   1.0000000   1.0000000   1.0000000

  Atom       121         122         123         124         125         126         127         128         129         130
 IAtWgt=           1           1           1           1           1           1           1           1           1           1
 AtmWgt=   1.0078250   1.0078250   1.0078250   1.0078250   1.0078250   1.0078250   1.0078250   1.0078250   1.0078250   1.0078250
 NucSpn=           1           1           1           1           1           1           1           1           1           1
 AtZEff=  -0.0000000  -0.0000000  -0.0000000  -0.0000000  -0.0000000  -0.0000000  -0.0000000  -0.0000000  -0.0000000  -0.0000000
 NQMom=    0.0000000   0.0000000   0.0000000   0.0000000   0.0000000   0.0000000   0.0000000   0.0000000   0.0000000   0.0000000
 NMagM=    2.7928460   2.7928460   2.7928460   2.7928460   2.7928460   2.7928460   2.7928460   2.7928460   2.7928460   2.7928460
 AtZNuc=   1.0000000   1.0000000   1.0000000   1.0000000   1.0000000   1.0000000   1.0000000   1.0000000   1.0000000   1.0000000

  Atom       131         132         133         134         135         136         137         138         139
 IAtWgt=           1           1           1           1           1           1           1           1           1
 AtmWgt=   1.0078250   1.0078250   1.0078250   1.0078250   1.0078250   1.0078250   1.0078250   1.0078250   1.0078250
 NucSpn=           1           1           1           1           1           1           1           1           1
 AtZEff=  -0.0000000  -0.0000000  -0.0000000  -0.0000000  -0.0000000  -0.0000000  -0.0000000  -0.0000000  -0.0000000
 NQMom=    0.0000000   0.0000000   0.0000000   0.0000000   0.0000000   0.0000000   0.0000000   0.0000000   0.0000000
 NMagM=    2.7928460   2.7928460   2.7928460   2.7928460   2.7928460   2.7928460   2.7928460   2.7928460   2.7928460
 AtZNuc=   1.0000000   1.0000000   1.0000000   1.0000000   1.0000000   1.0000000   1.0000000   1.0000000   1.0000000
 Leave Link  101 at Thu Nov  6 20:05:26 2025, MaxMem= 30870077440 cpu:               4.8 elap:               0.1
 (Enter /public/software/gauss/g16/l202.exe)
 Stoichiometry    C66H61BF2N4O5(1-,2)
 Framework group  C1[X(C66H61BF2N4O5)]
 Deg. of freedom   411
 Full point group                 C1      NOp   1
 Largest Abelian subgroup         C1      NOp   1
 Largest concise Abelian subgroup C1      NOp   1
                         Standard orientation:                         
 ---------------------------------------------------------------------
 Center     Atomic      Atomic             Coordinates (Angstroms)
 Number     Number       Type             X           Y           Z
 ---------------------------------------------------------------------
      1          6           0        5.019114   -5.988279    0.095361
      2          6           0        4.872207   -5.016417    1.279213
      3          6           0        4.941518   -3.566042    0.878094
      4          6           0        6.108342   -2.794835    0.782258
      5          6           0        7.476882   -3.272380    1.178808
      6          6           0        5.714624   -1.504611    0.311638
      7          6           0        6.480807   -0.332203    0.062479
      8          6           0        5.826710    0.902142   -0.206747
      9          6           0        6.342065    2.148686   -0.677378
     10          6           0        7.755712    2.500536   -1.045848
     11          6           0        5.248978    3.017035   -0.807845
     12          6           0        5.313889    4.464395   -1.219927
     13          6           0        5.513365    5.430400   -0.038933
     14          6           0        4.076205    2.312275   -0.432491
     15          6           0        2.774124    2.917984   -0.422415
     16          6           0        1.577654    2.498402    0.081840
     17          6           0        0.333638    3.256763    0.022352
     18          6           0        0.153970    4.432452   -0.742693
     19          6           0       -1.043525    5.132374   -0.738017
     20          6           0       -2.135912    4.701339    0.042105
     21          6           0       -1.980904    3.522483    0.794490
     22          6           0       -0.781082    2.820823    0.772024
     23          7           0       -3.342813    5.437037    0.059578
     24          6           0       -3.316641    6.860353   -0.035626
     25          6           0       -4.188285    7.532397   -0.909933
     26          6           0       -4.181105    8.918875   -0.991722
     27          6           0       -3.287236    9.670350   -0.214860
     28          8           0       -3.352802   11.033828   -0.374575
     29          6           0       -2.467037   11.840096    0.405945
     30          6           0       -2.406755    9.013392    0.651983
     31          6           0       -2.436014    7.620202    0.743890
     32          6           0       -4.601675    4.785509    0.204836
     33          6           0       -4.912809    3.633794   -0.529165
     34          6           0       -6.152860    3.004657   -0.396327
     35          6           0       -7.116761    3.542254    0.464008
     36          8           0       -8.373266    3.019296    0.654681
     37          6           0       -8.728117    1.844949   -0.080288
     38          6           0       -6.816888    4.697856    1.199430
     39          6           0       -5.573203    5.303928    1.079257
     40          7           0        4.442499    1.015004   -0.080973
     41          5           0        3.497071   -0.200657    0.025981
     42          9           0        2.680772   -0.232452   -1.131804
     43          9           0        2.657239   -0.094903    1.162778
     44          7           0        4.329001   -1.495262    0.153711
     45          6           0        3.843383   -2.759145    0.482460
     46          6           0        2.494419   -3.248570    0.435802
     47          6           0        1.347949   -2.705520   -0.066095
     48          6           0        0.034220   -3.336379   -0.045283
     49          6           0       -1.052410   -2.675419   -0.659719
     50          6           0       -2.328884   -3.222582   -0.694414
     51          6           0       -2.590317   -4.469148   -0.097379
     52          6           0       -1.520625   -5.137442    0.531445
     53          6           0       -0.247037   -4.587128    0.552198
     54          7           0       -3.888282   -5.030340   -0.119734
     55          6           0       -4.068940   -6.436877   -0.250251
     56          6           0       -3.320484   -7.176646   -1.183456
     57          6           0       -3.499735   -8.548107   -1.309419
     58          6           0       -4.448272   -9.215881   -0.521103
     59          8           0       -4.557304  -10.570546   -0.729497
     60          6           0       -5.501836  -11.292531    0.064009
     61          6           0       -5.208705   -8.490228    0.402090
     62          6           0       -5.007028   -7.115003    0.538214
     63          6           0       -5.032713   -4.187126   -0.011144
     64          6           0       -6.117438   -4.332437   -0.883984
     65          6           0       -7.248999   -3.521161   -0.772325
     66          6           0       -7.297464   -2.531538    0.215251
     67          8           0       -8.355082   -1.676618    0.410194
     68          6           0       -9.474125   -1.783915   -0.473727
     69          6           0       -6.212117   -2.371714    1.089088
     70          6           0       -5.099668   -3.195940    0.983662
     71          6           0        7.960087   -0.396744    0.081202
     72          6           0        8.661280   -1.200514   -0.846260
     73          6           0       10.045548   -1.257845   -0.839697
     74          6           0       10.780701   -0.520185    0.108627
     75          6           0       12.241717   -0.568303    0.141648
     76          8           0       12.945199   -1.224623   -0.628615
     77          6           0       10.093300    0.278428    1.039590
     78          6           0        8.706047    0.343239    1.021253
     79          1           0        4.970513   -7.029049    0.434207
     80          1           0        4.222747   -5.834223   -0.640427
     81          1           0        5.977204   -5.844130   -0.415457
     82          1           0        3.929192   -5.223875    1.796511
     83          1           0        5.661663   -5.228592    2.008760
     84          1           0        7.396529   -4.135640    1.845606
     85          1           0        8.087864   -3.584004    0.323270
     86          1           0        8.043885   -2.501723    1.707097
     87          1           0        7.766612    3.360427   -1.721718
     88          1           0        8.372444    2.766006   -0.178875
     89          1           0        8.264528    1.677666   -1.554284
     90          1           0        6.136191    4.603026   -1.930553
     91          1           0        4.404359    4.746259   -1.761544
     92          1           0        4.688286    5.351468    0.676824
     93          1           0        6.442252    5.209211    0.497639
     94          1           0        5.562804    6.468543   -0.385658
     95          1           0        2.791085    3.909271   -0.868508
     96          1           0        1.522085    1.554181    0.609834
     97          1           0        0.958759    4.797054   -1.373838
     98          1           0       -1.143297    6.022644   -1.349853
     99          1           0       -2.801998    3.160767    1.404204
    100          1           0       -0.689955    1.918883    1.372151
    101          1           0       -4.876282    6.962110   -1.525551
    102          1           0       -4.855895    9.436943   -1.665933
    103          1           0       -2.646626   11.707568    1.478691
    104          1           0       -1.418547   11.614481    0.181628
    105          1           0       -2.681410   12.873121    0.128761
    106          1           0       -1.710112    9.568311    1.268516
    107          1           0       -1.760614    7.120838    1.430926
    108          1           0       -4.180506    3.219430   -1.214388
    109          1           0       -6.357966    2.114127   -0.977999
    110          1           0       -8.681688    2.020754   -1.160903
    111          1           0       -8.083857    0.999373    0.181128
    112          1           0       -9.756579    1.618203    0.203970
    113          1           0       -7.566883    5.103106    1.871453
    114          1           0       -5.351294    6.191177    1.662965
    115          1           0        2.416129   -4.247974    0.855893
    116          1           0        1.383965   -1.736990   -0.549017
    117          1           0       -0.880158   -1.712802   -1.134717
    118          1           0       -3.130729   -2.685633   -1.190218
    119          1           0       -1.697805   -6.093091    1.013831
    120          1           0        0.539925   -5.135644    1.060841
    121          1           0       -2.594473   -6.671925   -1.812261
    122          1           0       -2.920505   -9.116999   -2.029991
    123          1           0       -6.523786  -10.935434   -0.106130
    124          1           0       -5.425581  -12.333205   -0.254036
    125          1           0       -5.264636  -11.221038    1.131435
    126          1           0       -5.945558   -8.979537    1.027461
    127          1           0       -5.592638   -6.564469    1.267193
    128          1           0       -6.082330   -5.089289   -1.660987
    129          1           0       -8.070977   -3.661505   -1.463753
    130          1           0       -9.184170   -1.585239   -1.511314
    131          1           0       -9.938426   -2.774210   -0.408533
    132          1           0      -10.188525   -1.028509   -0.144813
    133          1           0       -6.263171   -1.606570    1.857394
    134          1           0       -4.272503   -3.072257    1.674995
    135          1           0        8.099238   -1.766173   -1.582723
    136          1           0       10.577583   -1.864269   -1.566177
    137          1           0       12.710529    0.046743    0.934319
    138          1           0       10.657441    0.840917    1.779344
    139          1           0        8.182308    0.957617    1.746581
 ---------------------------------------------------------------------
 Rotational constants (GHZ):           0.0185564           0.0147874           0.0083780
 Leave Link  202 at Thu Nov  6 20:05:26 2025, MaxMem= 30870077440 cpu:               0.2 elap:               0.0
 (Enter /public/software/gauss/g16/l301.exe)
 Standard basis: def2TZVPP (5D, 7F)
 Ernie: Thresh=  0.10000D-02 Tol=  0.10000D-05 Strict=F.
 There are  3723 symmetry adapted cartesian basis functions of A   symmetry.
 There are  3272 symmetry adapted basis functions of A   symmetry.
  3272 basis functions,  5015 primitive gaussians,  3723 cartesian basis functions
   275 alpha electrons      274 beta electrons
       nuclear repulsion energy     11532.7535441398 Hartrees.
 IExCor= 4336 DFT=T Ex+Corr=M062X ExCW=0 ScaHFX=  0.540000
 ScaDFX=  1.000000  1.000000  1.000000  1.000000 ScalE2=  1.000000  1.000000
 IRadAn=      5 IRanWt=     -1 IRanGd=            0 ICorTp=0 IEmpDi=131
 NAtoms=  139 NActive=  139 NUniq=  139 SFac= 1.00D+00 NAtFMM=   60 NAOKFM=T Big=T
 Integral buffers will be    131072 words long.
 Raffenetti 2 integral format.
 Two-electron integral symmetry is turned on.
 R6Disp:  Grimme-D3 Dispersion energy=       -0.0138797613 Hartrees.
 Nuclear repulsion after empirical dispersion term =    11532.7396643785 Hartrees.
 ------------------------------------------------------------------------------
 Polarizable Continuum Model (PCM)
 =================================
 Model                : PCM.
 Atomic radii         : UFF (Universal Force Field).
 Polarization charges : Total charges.
 Charge compensation  : None.
 Solution method      : On-the-fly selection.
 Cavity type          : Scaled VdW (van der Waals Surface) (Alpha=1.100).
 Cavity algorithm     : GePol (No added spheres)
                        Default sphere list used, NSphG=  139.
                        Lebedev-Laikov grids with approx.  5.0 points / Ang**2.
                        Smoothing algorithm: York/Karplus (Gamma=1.0000).
                        Polarization charges: spherical gaussians, with
                                              point-specific exponents (IZeta= 3).
                        Self-potential: point-specific (ISelfS= 7).
                        Self-field    : sphere-specific E.n sum rule (ISelfD= 2).
 Solvent              : Water, Eps=  78.355300 Eps(inf)=   1.777849
 ------------------------------------------------------------------------------
 GePol: Number of generator spheres                  =     139
 GePol: Total number of spheres                      =     139
 GePol: Number of exposed spheres                    =     139 (100.00%)
 GePol: Number of points                             =    9485
 GePol: Average weight of points                     =       0.13
 GePol: Minimum weight of points                     =   0.16D-10
 GePol: Maximum weight of points                     =    0.20577
 GePol: Number of points with low weight             =     723
 GePol: Fraction of low-weight points (<1% of avg)   =       7.62%
 GePol: Cavity surface area                          =   1197.325 Ang**2
 GePol: Cavity volume                                =   1416.352 Ang**3
 Leave Link  301 at Thu Nov  6 20:05:26 2025, MaxMem= 30870077440 cpu:               4.6 elap:               0.1
 (Enter /public/software/gauss/g16/l302.exe)
 NPDir=0 NMtPBC=     1 NCelOv=     1 NCel=       1 NClECP=     1 NCelD=      1
         NCelK=      1 NCelE2=     1 NClLst=     1 CellRange=     0.0.
 One-electron integrals computed using PRISM.
 One-electron integral symmetry used in STVInt
   1 Symmetry operations used in ECPInt.
 ECPInt:  NShTT=  749700 NPrTT= 2100075 LenC2=  347771 LenP2D=  633454.
 LDataN:  DoStor=T MaxTD1= 6 Len=  172
 Number of processors reduced to  50 by ecpmxn.
 NBasis=  3272 RedAO= T EigKep=  3.49D-06  NBF=  3272
 NBsUse=  3272 1.00D-06 EigRej= -1.00D+00 NBFU=  3272
 Precomputing XC quadrature grid using
 IXCGrd= 4 IRadAn=           5 IRanWt=          -1 IRanGd=           0 AccXCQ= 0.00D+00.
 Generated NRdTot=       0 NPtTot=           0 NUsed=           0 NTot=          32
 NSgBfM=  2966  2966  2966  2966  2966 MxSgAt=   139 MxSgA2=   139.
 Leave Link  302 at Thu Nov  6 20:06:09 2025, MaxMem= 30870077440 cpu:            2789.3 elap:              43.7
 (Enter /public/software/gauss/g16/l303.exe)
 DipDrv:  MaxL=1.
 Leave Link  303 at Thu Nov  6 20:06:11 2025, MaxMem= 30870077440 cpu:              74.9 elap:               1.3
 (Enter /public/software/gauss/g16/l401.exe)
 ExpMin= 6.06D-02 ExpMax= 3.55D+04 ExpMxC= 1.21D+03 IAcc=3 IRadAn=         5 AccDes= 0.00D+00
 Harris functional with IExCor= 1009 and IRadAn=       5 diagonalized for initial guess.
 HarFok:  IExCor= 1009 AccDes= 0.00D+00 IRadAn=         5 IDoV= 1 UseB2=F ITyADJ=14
 ICtDFT=  3500011 ScaDFX=  1.000000  1.000000  1.000000  1.000000
 FoFCou: FMM=F IPFlag=           0 FMFlag=      100000 FMFlg1=        2001
         NFxFlg=           0 DoJE=T BraDBF=F KetDBF=T FulRan=T
         wScrn=  0.000000 ICntrl=       500 IOpCl=  0 I1Cent=   200000004 NGrid=           0
         NMat0=    1 NMatS0=      1 NMatT0=    0 NMatD0=    1 NMtDS0=    0 NMtDT0=    0
 Petite list used in FoFCou.
 Harris En= -3370.07843071160    
 JPrj=0 DoOrth=F DoCkMO=F.
 Initial guess <Sx>= 0.0000 <Sy>= 0.0000 <Sz>= 0.5000 <S**2>= 0.7500 S= 0.5000
 Leave Link  401 at Thu Nov  6 20:06:44 2025, MaxMem= 30870077440 cpu:            2129.1 elap:              33.4
 (Enter /public/software/gauss/g16/l502.exe)
 Integral symmetry usage will be decided dynamically.
 UHF open shell SCF:
 Using DIIS extrapolation, IDIIS=  1040.
 NGot= 30870077440 LenX= 30842086395 LenY= 30828221943
 Requested convergence on RMS density matrix=1.00D-08 within 128 cycles.
 Requested convergence on MAX density matrix=1.00D-06.
 Requested convergence on             energy=1.00D-06.
 No special actions if energy rises.
 Fock matrices will be formed incrementally for  20 cycles.

 Cycle   1  Pass 1  IDiag  1:
 FoFJK:  IHMeth= 1 ICntrl=       0 DoSepK=F KAlg= 0 I1Cent=           0 FoldK=F
 IRaf= 410000000 NMat=       1 IRICut=       1 DoRegI=T DoRafI=F ISym2E= 0 IDoP0=0 IntGTp=1.
 FoFCou: FMM=T IPFlag=           0 FMFlag=      100000 FMFlg1=        2001
         NFxFlg=           0 DoJE=F BraDBF=F KetDBF=F FulRan=T
         wScrn=  0.000000 ICntrl=         0 IOpCl=  1 I1Cent=           0 NGrid=           0
         NMat0=    1 NMatS0=      1 NMatT0=    0 NMatD0=    1 NMtDS0=    0 NMtDT0=    0
 Symmetry not used in FoFCou.
 FMM levels:  10  Number of levels for PrismC:   9
 Inv3:  Mode=1 IEnd=   269895675.
 Iteration    1 A*A^-1 deviation from unit magnitude is 2.22D-14 for    583.
 Iteration    1 A*A^-1 deviation from orthogonality  is 7.41D-15 for   6304   1610.
 Iteration    1 A^-1*A deviation from unit magnitude is 2.18D-14 for    583.
 Iteration    1 A^-1*A deviation from orthogonality  is 5.99D-13 for   5548   5507.
 E= -3369.80117176219    
 DIIS: error= 1.44D-02 at cycle   1 NSaved=   1.
 NSaved= 1 IEnMin= 1 EnMin= -3369.80117176219     IErMin= 1 ErrMin= 1.44D-02
 ErrMax= 1.44D-02  0.00D+00 EMaxC= 1.00D-01 BMatC= 9.00D+00 BMatP= 9.00D+00
 IDIUse=3 WtCom= 8.56D-01 WtEn= 1.44D-01
 Coeff-Com:  0.100D+01
 Coeff-En:   0.100D+01
 Coeff:      0.100D+01
 Gap=     0.109 Goal=   None    Shift=    0.000
 Gap=     0.139 Goal=   None    Shift=    0.000
 GapD=    0.109 DampG=1.000 DampE=0.500 DampFc=0.5000 IDamp=-1.
 Damping current iteration by 5.00D-01
 RMSDP=1.27D-03 MaxDP=5.80D-01              OVMax= 1.92D-01

 Cycle   2  Pass 1  IDiag  1:
 RMSU=  6.36D-04    CP:  9.96D-01
 E= -3370.75443375464     Delta-E=       -0.953261992456 Rises=F Damp=T
 DIIS: error= 4.48D-03 at cycle   2 NSaved=   2.
 NSaved= 2 IEnMin= 2 EnMin= -3370.75443375464     IErMin= 2 ErrMin= 4.48D-03
 ErrMax= 4.48D-03  0.00D+00 EMaxC= 1.00D-01 BMatC= 8.70D-01 BMatP= 9.00D+00
 IDIUse=3 WtCom= 9.55D-01 WtEn= 4.48D-02
 Coeff-Com: -0.174D+00 0.117D+01
 Coeff-En:   0.000D+00 0.100D+01
 Coeff:     -0.166D+00 0.117D+01
 Gap=     0.107 Goal=   None    Shift=    0.000
 Gap=     0.123 Goal=   None    Shift=    0.000
 RMSDP=5.12D-04 MaxDP=1.61D-01 DE=-9.53D-01 OVMax= 1.17D-01

 Cycle   3  Pass 1  IDiag  1:
 RMSU=  4.97D-04    CP:  9.87D-01  1.19D+00
 E= -3371.56290552820     Delta-E=       -0.808471773556 Rises=F Damp=F
 DIIS: error= 3.52D-03 at cycle   3 NSaved=   3.
 NSaved= 3 IEnMin= 3 EnMin= -3371.56290552820     IErMin= 3 ErrMin= 3.52D-03
 ErrMax= 3.52D-03  0.00D+00 EMaxC= 1.00D-01 BMatC= 3.78D-01 BMatP= 8.70D-01
 IDIUse=3 WtCom= 9.65D-01 WtEn= 3.52D-02
 Coeff-Com: -0.138D+00 0.513D+00 0.625D+00
 Coeff-En:   0.000D+00 0.000D+00 0.100D+01
 Coeff:     -0.133D+00 0.495D+00 0.639D+00
 Gap=     0.119 Goal=   None    Shift=    0.000
 Gap=     0.126 Goal=   None    Shift=    0.000
 RMSDP=1.52D-04 MaxDP=7.00D-02 DE=-8.08D-01 OVMax= 6.72D-02

 Cycle   4  Pass 1  IDiag  1:
 RMSU=  1.40D-04    CP:  9.87D-01  1.24D+00  8.98D-01
 E= -3371.63045148208     Delta-E=       -0.067545953876 Rises=F Damp=F
 DIIS: error= 1.60D-03 at cycle   4 NSaved=   4.
 NSaved= 4 IEnMin= 4 EnMin= -3371.63045148208     IErMin= 4 ErrMin= 1.60D-03
 ErrMax= 1.60D-03  0.00D+00 EMaxC= 1.00D-01 BMatC= 7.54D-02 BMatP= 3.78D-01
 IDIUse=3 WtCom= 9.84D-01 WtEn= 1.60D-02
 Coeff-Com: -0.462D-01 0.117D+00 0.346D+00 0.583D+00
 Coeff-En:   0.000D+00 0.000D+00 0.154D+00 0.846D+00
 Coeff:     -0.455D-01 0.115D+00 0.343D+00 0.587D+00
 Gap=     0.118 Goal=   None    Shift=    0.000
 Gap=     0.126 Goal=   None    Shift=    0.000
 RMSDP=6.45D-05 MaxDP=3.45D-02 DE=-6.75D-02 OVMax= 2.41D-02

 Cycle   5  Pass 1  IDiag  1:
 RMSU=  4.73D-05    CP:  9.86D-01  1.22D+00  9.33D-01  7.23D-01
 E= -3371.64731999067     Delta-E=       -0.016868508592 Rises=F Damp=F
 DIIS: error= 2.72D-04 at cycle   5 NSaved=   5.
 NSaved= 5 IEnMin= 5 EnMin= -3371.64731999067     IErMin= 5 ErrMin= 2.72D-04
 ErrMax= 2.72D-04  0.00D+00 EMaxC= 1.00D-01 BMatC= 2.27D-03 BMatP= 7.54D-02
 IDIUse=3 WtCom= 9.97D-01 WtEn= 2.72D-03
 Coeff-Com: -0.119D-01 0.234D-01 0.115D+00 0.241D+00 0.633D+00
 Coeff-En:   0.000D+00 0.000D+00 0.000D+00 0.000D+00 0.100D+01
 Coeff:     -0.119D-01 0.234D-01 0.114D+00 0.240D+00 0.634D+00
 Gap=     0.119 Goal=   None    Shift=    0.000
 Gap=     0.128 Goal=   None    Shift=    0.000
 RMSDP=2.21D-05 MaxDP=2.04D-02 DE=-1.69D-02 OVMax= 9.74D-03

 Cycle   6  Pass 1  IDiag  1:
 RMSU=  1.86D-05    CP:  9.86D-01  1.23D+00  9.37D-01  7.36D-01  1.19D+00
 E= -3371.64798009421     Delta-E=       -0.000660103538 Rises=F Damp=F
 DIIS: error= 1.25D-04 at cycle   6 NSaved=   6.
 NSaved= 6 IEnMin= 6 EnMin= -3371.64798009421     IErMin= 6 ErrMin= 1.25D-04
 ErrMax= 1.25D-04  0.00D+00 EMaxC= 1.00D-01 BMatC= 3.08D-04 BMatP= 2.27D-03
 IDIUse=3 WtCom= 9.99D-01 WtEn= 1.25D-03
 Coeff-Com:  0.511D-03-0.317D-02 0.773D-02 0.231D-01 0.248D+00 0.724D+00
 Coeff-En:   0.000D+00 0.000D+00 0.000D+00 0.000D+00 0.000D+00 0.100D+01
 Coeff:      0.511D-03-0.317D-02 0.772D-02 0.231D-01 0.247D+00 0.724D+00
 Gap=     0.121 Goal=   None    Shift=    0.000
 Gap=     0.129 Goal=   None    Shift=    0.000
 RMSDP=1.46D-05 MaxDP=1.23D-02 DE=-6.60D-04 OVMax= 8.65D-03

 Cycle   7  Pass 1  IDiag  1:
 RMSU=  8.10D-06    CP:  9.86D-01  1.23D+00  9.43D-01  7.53D-01  1.40D+00
                    CP:  1.29D+00
 E= -3371.64816027754     Delta-E=       -0.000180183330 Rises=F Damp=F
 DIIS: error= 5.20D-05 at cycle   7 NSaved=   7.
 NSaved= 7 IEnMin= 7 EnMin= -3371.64816027754     IErMin= 7 ErrMin= 5.20D-05
 ErrMax= 5.20D-05  0.00D+00 EMaxC= 1.00D-01 BMatC= 7.01D-05 BMatP= 3.08D-04
 IDIUse=1 WtCom= 1.00D+00 WtEn= 0.00D+00
 Coeff-Com:  0.277D-02-0.606D-02-0.223D-01-0.494D-01-0.719D-01 0.209D+00
 Coeff-Com:  0.938D+00
 Coeff:      0.277D-02-0.606D-02-0.223D-01-0.494D-01-0.719D-01 0.209D+00
 Coeff:      0.938D+00
 Gap=     0.122 Goal=   None    Shift=    0.000
 Gap=     0.131 Goal=   None    Shift=    0.000
 RMSDP=1.45D-05 MaxDP=1.36D-02 DE=-1.80D-04 OVMax= 7.61D-03

 Cycle   8  Pass 1  IDiag  1:
 RMSU=  3.62D-06    CP:  9.86D-01  1.24D+00  9.48D-01  7.70D-01  1.60D+00
                    CP:  1.74D+00  1.62D+00
 E= -3371.64824144610     Delta-E=       -0.000081168560 Rises=F Damp=F
 DIIS: error= 3.06D-05 at cycle   8 NSaved=   8.
 NSaved= 8 IEnMin= 8 EnMin= -3371.64824144610     IErMin= 8 ErrMin= 3.06D-05
 ErrMax= 3.06D-05  0.00D+00 EMaxC= 1.00D-01 BMatC= 2.72D-05 BMatP= 7.01D-05
 IDIUse=1 WtCom= 1.00D+00 WtEn= 0.00D+00
 Coeff-Com:  0.120D-02-0.206D-02-0.130D-01-0.319D-01-0.114D+00-0.120D+00
 Coeff-Com:  0.452D+00 0.828D+00
 Coeff:      0.120D-02-0.206D-02-0.130D-01-0.319D-01-0.114D+00-0.120D+00
 Coeff:      0.452D+00 0.828D+00
 Gap=     0.123 Goal=   None    Shift=    0.000
 Gap=     0.131 Goal=   None    Shift=    0.000
 RMSDP=9.51D-06 MaxDP=8.94D-03 DE=-8.12D-05 OVMax= 4.92D-03

 Cycle   9  Pass 1  IDiag  1:
 RMSU=  1.93D-06    CP:  9.87D-01  1.24D+00  9.51D-01  7.81D-01  1.72D+00
                    CP:  2.01D+00  2.17D+00  1.48D+00
 E= -3371.64827145550     Delta-E=       -0.000030009405 Rises=F Damp=F
 DIIS: error= 1.47D-05 at cycle   9 NSaved=   9.
 NSaved= 9 IEnMin= 9 EnMin= -3371.64827145550     IErMin= 9 ErrMin= 1.47D-05
 ErrMax= 1.47D-05  0.00D+00 EMaxC= 1.00D-01 BMatC= 6.23D-06 BMatP= 2.72D-05
 IDIUse=1 WtCom= 1.00D+00 WtEn= 0.00D+00
 Coeff-Com: -0.635D-03 0.160D-02 0.377D-02 0.720D-02-0.129D-01-0.108D+00
 Coeff-Com: -0.154D+00 0.296D+00 0.967D+00
 Coeff:     -0.635D-03 0.160D-02 0.377D-02 0.720D-02-0.129D-01-0.108D+00
 Coeff:     -0.154D+00 0.296D+00 0.967D+00
 Gap=     0.123 Goal=   None    Shift=    0.000
 Gap=     0.132 Goal=   None    Shift=    0.000
 RMSDP=5.63D-06 MaxDP=5.44D-03 DE=-3.00D-05 OVMax= 2.88D-03

 Cycle  10  Pass 1  IDiag  1:
 RMSU=  9.96D-07    CP:  9.87D-01  1.24D+00  9.53D-01  7.88D-01  1.79D+00
                    CP:  2.17D+00  2.51D+00  1.93D+00  1.51D+00
 E= -3371.64827935466     Delta-E=       -0.000007899154 Rises=F Damp=F
 DIIS: error= 7.42D-06 at cycle  10 NSaved=  10.
 NSaved=10 IEnMin=10 EnMin= -3371.64827935466     IErMin=10 ErrMin= 7.42D-06
 ErrMax= 7.42D-06  0.00D+00 EMaxC= 1.00D-01 BMatC= 1.59D-06 BMatP= 6.23D-06
 IDIUse=1 WtCom= 1.00D+00 WtEn= 0.00D+00
 Coeff-Com: -0.520D-03 0.113D-02 0.406D-02 0.953D-02 0.146D-01-0.297D-01
 Coeff-Com: -0.157D+00-0.183D-01 0.428D+00 0.748D+00
 Coeff:     -0.520D-03 0.113D-02 0.406D-02 0.953D-02 0.146D-01-0.297D-01
 Coeff:     -0.157D+00-0.183D-01 0.428D+00 0.748D+00
 Gap=     0.123 Goal=   None    Shift=    0.000
 Gap=     0.132 Goal=   None    Shift=    0.000
 RMSDP=1.82D-06 MaxDP=1.54D-03 DE=-7.90D-06 OVMax= 1.13D-03

 Cycle  11  Pass 1  IDiag  1:
 RMSU=  4.13D-07    CP:  9.87D-01  1.24D+00  9.54D-01  7.90D-01  1.80D+00
                    CP:  2.22D+00  2.62D+00  2.08D+00  1.80D+00  1.27D+00
 E= -3371.64828088099     Delta-E=       -0.000001526339 Rises=F Damp=F
 DIIS: error= 4.96D-06 at cycle  11 NSaved=  11.
 NSaved=11 IEnMin=11 EnMin= -3371.64828088099     IErMin=11 ErrMin= 4.96D-06
 ErrMax= 4.96D-06  0.00D+00 EMaxC= 1.00D-01 BMatC= 3.40D-07 BMatP= 1.59D-06
 IDIUse=1 WtCom= 1.00D+00 WtEn= 0.00D+00
 Coeff-Com: -0.107D-04-0.180D-04 0.380D-03 0.150D-02 0.717D-02 0.130D-01
 Coeff-Com: -0.132D-01-0.595D-01-0.103D+00 0.238D+00 0.916D+00
 Coeff:     -0.107D-04-0.180D-04 0.380D-03 0.150D-02 0.717D-02 0.130D-01
 Coeff:     -0.132D-01-0.595D-01-0.103D+00 0.238D+00 0.916D+00
 Gap=     0.123 Goal=   None    Shift=    0.000
 Gap=     0.132 Goal=   None    Shift=    0.000
 RMSDP=8.06D-07 MaxDP=6.80D-04 DE=-1.53D-06 OVMax= 6.84D-04

 Cycle  12  Pass 1  IDiag  1:
 RMSU=  2.46D-07    CP:  9.87D-01  1.24D+00  9.54D-01  7.91D-01  1.81D+00
                    CP:  2.23D+00  2.66D+00  2.14D+00  1.96D+00  1.59D+00
                    CP:  1.55D+00
 E= -3371.64828139210     Delta-E=       -0.000000511107 Rises=F Damp=F
 DIIS: error= 2.74D-06 at cycle  12 NSaved=  12.
 NSaved=12 IEnMin=12 EnMin= -3371.64828139210     IErMin=12 ErrMin= 2.74D-06
 ErrMax= 2.74D-06  0.00D+00 EMaxC= 1.00D-01 BMatC= 1.05D-07 BMatP= 3.40D-07
 IDIUse=1 WtCom= 1.00D+00 WtEn= 0.00D+00
 Coeff-Com:  0.123D-03-0.277D-03-0.891D-03-0.191D-02-0.144D-02 0.101D-01
 Coeff-Com:  0.324D-01-0.688D-02-0.144D+00-0.925D-01 0.312D+00 0.894D+00
 Coeff:      0.123D-03-0.277D-03-0.891D-03-0.191D-02-0.144D-02 0.101D-01
 Coeff:      0.324D-01-0.688D-02-0.144D+00-0.925D-01 0.312D+00 0.894D+00
 Gap=     0.123 Goal=   None    Shift=    0.000
 Gap=     0.132 Goal=   None    Shift=    0.000
 RMSDP=4.12D-07 MaxDP=2.59D-04 DE=-5.11D-07 OVMax= 4.50D-04

 Cycle  13  Pass 1  IDiag  1:
 RMSU=  1.37D-07    CP:  9.87D-01  1.24D+00  9.54D-01  7.91D-01  1.81D+00
                    CP:  2.24D+00  2.67D+00  2.15D+00  2.03D+00  1.78D+00
                    CP:  2.01D+00  1.49D+00
 E= -3371.64828159026     Delta-E=       -0.000000198153 Rises=F Damp=F
 DIIS: error= 1.51D-06 at cycle  13 NSaved=  13.
 NSaved=13 IEnMin=13 EnMin= -3371.64828159026     IErMin=13 ErrMin= 1.51D-06
 ErrMax= 1.51D-06  0.00D+00 EMaxC= 1.00D-01 BMatC= 3.90D-08 BMatP= 1.05D-07
 IDIUse=1 WtCom= 1.00D+00 WtEn= 0.00D+00
 Coeff-Com:  0.454D-04-0.891D-04-0.434D-03-0.121D-02-0.283D-02-0.110D-02
 Coeff-Com:  0.146D-01 0.209D-01-0.200D-01-0.116D+00-0.199D+00 0.311D+00
 Coeff-Com:  0.994D+00
 Coeff:      0.454D-04-0.891D-04-0.434D-03-0.121D-02-0.283D-02-0.110D-02
 Coeff:      0.146D-01 0.209D-01-0.200D-01-0.116D+00-0.199D+00 0.311D+00
 Coeff:      0.994D+00
 Gap=     0.123 Goal=   None    Shift=    0.000
 Gap=     0.132 Goal=   None    Shift=    0.000
 RMSDP=3.16D-07 MaxDP=2.14D-04 DE=-1.98D-07 OVMax= 3.41D-04

 Cycle  14  Pass 1  IDiag  1:
 RMSU=  6.88D-08    CP:  9.87D-01  1.24D+00  9.54D-01  7.91D-01  1.81D+00
                    CP:  2.25D+00  2.68D+00  2.17D+00  2.07D+00  1.91D+00
                    CP:  2.34D+00  2.04D+00  1.65D+00
 E= -3371.64828168101     Delta-E=       -0.000000090757 Rises=F Damp=F
 DIIS: error= 7.53D-07 at cycle  14 NSaved=  14.
 NSaved=14 IEnMin=14 EnMin= -3371.64828168101     IErMin=14 ErrMin= 7.53D-07
 ErrMax= 7.53D-07  0.00D+00 EMaxC= 1.00D-01 BMatC= 1.54D-08 BMatP= 3.90D-08
 IDIUse=1 WtCom= 1.00D+00 WtEn= 0.00D+00
 Coeff-Com: -0.320D-04 0.766D-04 0.193D-03 0.270D-03-0.507D-03-0.457D-02
 Coeff-Com: -0.769D-02 0.117D-01 0.486D-01-0.113D-01-0.198D+00-0.250D+00
 Coeff-Com:  0.427D+00 0.984D+00
 Coeff:     -0.320D-04 0.766D-04 0.193D-03 0.270D-03-0.507D-03-0.457D-02
 Coeff:     -0.769D-02 0.117D-01 0.486D-01-0.113D-01-0.198D+00-0.250D+00
 Coeff:      0.427D+00 0.984D+00
 Gap=     0.123 Goal=   None    Shift=    0.000
 Gap=     0.132 Goal=   None    Shift=    0.000
 RMSDP=2.15D-07 MaxDP=1.23D-04 DE=-9.08D-08 OVMax= 2.18D-04

 Cycle  15  Pass 1  IDiag  1:
 RMSU=  4.29D-08    CP:  9.87D-01  1.24D+00  9.54D-01  7.91D-01  1.82D+00
                    CP:  2.25D+00  2.68D+00  2.18D+00  2.10D+00  1.97D+00
                    CP:  2.56D+00  2.40D+00  2.31D+00  1.61D+00
 E= -3371.64828171200     Delta-E=       -0.000000030988 Rises=F Damp=F
 DIIS: error= 3.34D-07 at cycle  15 NSaved=  15.
 NSaved=15 IEnMin=15 EnMin= -3371.64828171200     IErMin=15 ErrMin= 3.34D-07
 ErrMax= 3.34D-07  0.00D+00 EMaxC= 1.00D-01 BMatC= 4.14D-09 BMatP= 1.54D-08
 IDIUse=1 WtCom= 1.00D+00 WtEn= 0.00D+00
 Coeff-Com: -0.263D-04 0.579D-04 0.213D-03 0.476D-03 0.596D-03-0.169D-02
 Coeff-Com: -0.805D-02-0.184D-02 0.273D-01 0.340D-01-0.131D-01-0.213D+00
 Coeff-Com: -0.142D+00 0.431D+00 0.886D+00
 Coeff:     -0.263D-04 0.579D-04 0.213D-03 0.476D-03 0.596D-03-0.169D-02
 Coeff:     -0.805D-02-0.184D-02 0.273D-01 0.340D-01-0.131D-01-0.213D+00
 Coeff:     -0.142D+00 0.431D+00 0.886D+00
 Gap=     0.123 Goal=   None    Shift=    0.000
 Gap=     0.132 Goal=   None    Shift=    0.000
 RMSDP=9.92D-08 MaxDP=7.52D-05 DE=-3.10D-08 OVMax= 7.33D-05

 Cycle  16  Pass 1  IDiag  1:
 RMSU=  2.18D-08    CP:  9.87D-01  1.24D+00  9.54D-01  7.91D-01  1.82D+00
                    CP:  2.25D+00  2.69D+00  2.18D+00  2.11D+00  2.00D+00
                    CP:  2.64D+00  2.55D+00  2.60D+00  2.09D+00  1.25D+00
 E= -3371.64828171814     Delta-E=       -0.000000006145 Rises=F Damp=F
 DIIS: error= 1.52D-07 at cycle  16 NSaved=  16.
 NSaved=16 IEnMin=16 EnMin= -3371.64828171814     IErMin=16 ErrMin= 1.52D-07
 ErrMax= 1.52D-07  0.00D+00 EMaxC= 1.00D-01 BMatC= 8.78D-10 BMatP= 4.14D-09
 IDIUse=1 WtCom= 1.00D+00 WtEn= 0.00D+00
 Coeff-Com: -0.307D-05 0.590D-05 0.454D-04 0.134D-03 0.356D-03 0.326D-03
 Coeff-Com: -0.155D-02-0.354D-02 0.804D-03 0.162D-01 0.384D-01-0.320D-01
 Coeff-Com: -0.149D+00-0.352D-01 0.366D+00 0.798D+00
 Coeff:     -0.307D-05 0.590D-05 0.454D-04 0.134D-03 0.356D-03 0.326D-03
 Coeff:     -0.155D-02-0.354D-02 0.804D-03 0.162D-01 0.384D-01-0.320D-01
 Coeff:     -0.149D+00-0.352D-01 0.366D+00 0.798D+00
 Gap=     0.123 Goal=   None    Shift=    0.000
 Gap=     0.132 Goal=   None    Shift=    0.000
 RMSDP=2.54D-08 MaxDP=1.30D-05 DE=-6.14D-09 OVMax= 1.85D-05

 Cycle  17  Pass 1  IDiag  1:
 RMSU=  1.14D-08    CP:  9.87D-01  1.24D+00  9.54D-01  7.91D-01  1.82D+00
                    CP:  2.25D+00  2.69D+00  2.18D+00  2.11D+00  2.00D+00
                    CP:  2.65D+00  2.57D+00  2.68D+00  2.19D+00  1.53D+00
                    CP:  1.23D+00
 E= -3371.64828171929     Delta-E=       -0.000000001142 Rises=F Damp=F
 DIIS: error= 1.11D-07 at cycle  17 NSaved=  17.
 NSaved=17 IEnMin=17 EnMin= -3371.64828171929     IErMin=17 ErrMin= 1.11D-07
 ErrMax= 1.11D-07  0.00D+00 EMaxC= 1.00D-01 BMatC= 1.93D-10 BMatP= 8.78D-10
 IDIUse=1 WtCom= 1.00D+00 WtEn= 0.00D+00
 Coeff-Com:  0.369D-05-0.839D-05-0.218D-04-0.366D-04 0.247D-04 0.441D-03
 Coeff-Com:  0.100D-02-0.115D-02-0.492D-02-0.627D-03 0.170D-01 0.329D-01
 Coeff-Com: -0.261D-01-0.103D+00-0.422D-01 0.323D+00 0.803D+00
 Coeff:      0.369D-05-0.839D-05-0.218D-04-0.366D-04 0.247D-04 0.441D-03
 Coeff:      0.100D-02-0.115D-02-0.492D-02-0.627D-03 0.170D-01 0.329D-01
 Coeff:     -0.261D-01-0.103D+00-0.422D-01 0.323D+00 0.803D+00
 Gap=     0.123 Goal=   None    Shift=    0.000
 Gap=     0.132 Goal=   None    Shift=    0.000
 RMSDP=9.20D-09 MaxDP=4.26D-06 DE=-1.14D-09 OVMax= 5.76D-06

 Cycle  18  Pass 1  IDiag  1:
 RMSU=  5.03D-09    CP:  9.87D-01  1.24D+00  9.54D-01  7.91D-01  1.82D+00
                    CP:  2.25D+00  2.69D+00  2.18D+00  2.11D+00  2.00D+00
                    CP:  2.65D+00  2.57D+00  2.68D+00  2.23D+00  1.59D+00
                    CP:  1.50D+00  1.22D+00
 E= -3371.64828171915     Delta-E=        0.000000000133 Rises=F Damp=F
 DIIS: error= 5.92D-08 at cycle  18 NSaved=  18.
 NSaved=18 IEnMin=17 EnMin= -3371.64828171929     IErMin=18 ErrMin= 5.92D-08
 ErrMax= 5.92D-08  0.00D+00 EMaxC= 1.00D-01 BMatC= 4.92D-11 BMatP= 1.93D-10
 IDIUse=1 WtCom= 1.00D+00 WtEn= 0.00D+00
 Coeff-Com:  0.210D-05-0.462D-05-0.191D-04-0.416D-04-0.656D-04 0.112D-03
 Coeff-Com:  0.761D-03 0.254D-03-0.212D-02-0.349D-02-0.134D-02 0.210D-01
 Coeff-Com:  0.196D-01-0.355D-01-0.949D-01-0.378D-01 0.327D+00 0.807D+00
 Coeff:      0.210D-05-0.462D-05-0.191D-04-0.416D-04-0.656D-04 0.112D-03
 Coeff:      0.761D-03 0.254D-03-0.212D-02-0.349D-02-0.134D-02 0.210D-01
 Coeff:      0.196D-01-0.355D-01-0.949D-01-0.378D-01 0.327D+00 0.807D+00
 Gap=     0.123 Goal=   None    Shift=    0.000
 Gap=     0.132 Goal=   None    Shift=    0.000
 RMSDP=6.39D-09 MaxDP=5.03D-06 DE= 1.33D-10 OVMax= 3.75D-06

 Cycle  19  Pass 1  IDiag  1:
 RMSU=  2.79D-09    CP:  9.87D-01  1.24D+00  9.54D-01  7.91D-01  1.82D+00
                    CP:  2.25D+00  2.69D+00  2.18D+00  2.11D+00  2.00D+00
                    CP:  2.65D+00  2.57D+00  2.67D+00  2.23D+00  1.64D+00
                    CP:  1.57D+00  1.47D+00  1.30D+00
 E= -3371.64828171929     Delta-E=       -0.000000000136 Rises=F Damp=F
 DIIS: error= 2.76D-08 at cycle  19 NSaved=  19.
 NSaved=19 IEnMin=19 EnMin= -3371.64828171929     IErMin=19 ErrMin= 2.76D-08
 ErrMax= 2.76D-08  0.00D+00 EMaxC= 1.00D-01 BMatC= 1.38D-11 BMatP= 4.92D-11
 IDIUse=1 WtCom= 1.00D+00 WtEn= 0.00D+00
 Coeff-Com: -0.423D-06 0.928D-06-0.368D-06-0.192D-05-0.267D-04-0.823D-04
 Coeff-Com: -0.257D-04 0.400D-03 0.648D-03-0.863D-03-0.527D-02-0.221D-02
 Coeff-Com:  0.128D-01 0.185D-01-0.156D-01-0.108D+00-0.135D+00 0.296D+00
 Coeff-Com:  0.939D+00
 Coeff:     -0.423D-06 0.928D-06-0.368D-06-0.192D-05-0.267D-04-0.823D-04
 Coeff:     -0.257D-04 0.400D-03 0.648D-03-0.863D-03-0.527D-02-0.221D-02
 Coeff:      0.128D-01 0.185D-01-0.156D-01-0.108D+00-0.135D+00 0.296D+00
 Coeff:      0.939D+00
 Gap=     0.123 Goal=   None    Shift=    0.000
 Gap=     0.132 Goal=   None    Shift=    0.000
 RMSDP=4.13D-09 MaxDP=1.80D-06 DE=-1.36D-10 OVMax= 2.91D-06

 Cycle  20  Pass 1  IDiag  1:
 RMSU=  1.44D-09    CP:  9.87D-01  1.24D+00  9.54D-01  7.91D-01  1.82D+00
                    CP:  2.25D+00  2.69D+00  2.18D+00  2.11D+00  2.00D+00
                    CP:  2.65D+00  2.57D+00  2.67D+00  2.23D+00  1.64D+00
                    CP:  1.64D+00  1.60D+00  1.77D+00  1.27D+00
 E= -3371.64828171886     Delta-E=        0.000000000426 Rises=F Damp=F
 DIIS: error= 1.35D-08 at cycle  20 NSaved=  20.
 NSaved=20 IEnMin=19 EnMin= -3371.64828171929     IErMin=20 ErrMin= 1.35D-08
 ErrMax= 1.35D-08  0.00D+00 EMaxC= 1.00D-01 BMatC= 4.25D-12 BMatP= 1.38D-11
 IDIUse=1 WtCom= 1.00D+00 WtEn= 0.00D+00
 Coeff-Com: -0.769D-06 0.170D-05 0.460D-05 0.965D-05 0.145D-05-0.754D-04
 Coeff-Com: -0.205D-03 0.151D-03 0.869D-03 0.422D-03-0.227D-02-0.618D-02
 Coeff-Com:  0.157D-02 0.180D-01 0.153D-01-0.472D-01-0.152D+00-0.407D-01
 Coeff-Com:  0.458D+00 0.754D+00
 Coeff:     -0.769D-06 0.170D-05 0.460D-05 0.965D-05 0.145D-05-0.754D-04
 Coeff:     -0.205D-03 0.151D-03 0.869D-03 0.422D-03-0.227D-02-0.618D-02
 Coeff:      0.157D-02 0.180D-01 0.153D-01-0.472D-01-0.152D+00-0.407D-01
 Coeff:      0.458D+00 0.754D+00
 Gap=     0.123 Goal=   None    Shift=    0.000
 Gap=     0.132 Goal=   None    Shift=    0.000
 RMSDP=2.05D-09 MaxDP=1.64D-06 DE= 4.26D-10 OVMax= 9.72D-07

 Cycle  21  Pass 1  IDiag  1:
 Restarting incremental Fock formation.
 E= -3371.64828171985     Delta-E=       -0.000000000982 Rises=F Damp=F
 DIIS: error= 6.65D-09 at cycle  21 NSaved=  20.
 NSaved=20 IEnMin=20 EnMin= -3371.64828171985     IErMin=20 ErrMin= 6.65D-09
 ErrMax= 6.65D-09  0.00D+00 EMaxC= 1.00D-01 BMatC= 1.00D-12 BMatP= 4.25D-12
 IDIUse=1 WtCom= 1.00D+00 WtEn= 0.00D+00
 Coeff-Com:  0.199D-07 0.743D-06 0.161D-05 0.534D-05 0.499D-05-0.336D-04
 Coeff-Com: -0.654D-04 0.294D-04 0.287D-03 0.920D-03-0.112D-02-0.348D-02
 Coeff-Com: -0.102D-03 0.898D-02 0.182D-01-0.670D-02-0.973D-01-0.141D+00
 Coeff-Com:  0.260D+00 0.961D+00
 Coeff:      0.199D-07 0.743D-06 0.161D-05 0.534D-05 0.499D-05-0.336D-04
 Coeff:     -0.654D-04 0.294D-04 0.287D-03 0.920D-03-0.112D-02-0.348D-02
 Coeff:     -0.102D-03 0.898D-02 0.182D-01-0.670D-02-0.973D-01-0.141D+00
 Coeff:      0.260D+00 0.961D+00
 Gap=     0.123 Goal=   None    Shift=    0.000
 Gap=     0.132 Goal=   None    Shift=    0.000
 RMSDP=8.16D-09 MaxDP=1.67D-06 DE=-9.82D-10 OVMax= 5.91D-07

 Cycle  22  Pass 1  IDiag  1:
 RMSU=  8.15D-09    CP:  1.00D+00
 E= -3371.64828171880     Delta-E=        0.000000001046 Rises=F Damp=F
 DIIS: error= 3.24D-09 at cycle  22 NSaved=  20.
 NSaved=20 IEnMin=19 EnMin= -3371.64828171985     IErMin=20 ErrMin= 3.24D-09
 ErrMax= 3.24D-09  0.00D+00 EMaxC= 1.00D-01 BMatC= 1.93D-13 BMatP= 1.00D-12
 IDIUse=1 WtCom= 1.00D+00 WtEn= 0.00D+00
 Coeff-Com:  0.536D-06 0.955D-06 0.459D-05 0.891D-05-0.756D-05-0.456D-04
 Coeff-Com: -0.436D-04 0.925D-04 0.534D-03 0.313D-03-0.138D-02-0.224D-02
 Coeff-Com:  0.473D-03 0.129D-01 0.209D-01-0.227D-01-0.115D+00-0.712D-01
 Coeff-Com:  0.203D+00 0.975D+00
 Coeff:      0.536D-06 0.955D-06 0.459D-05 0.891D-05-0.756D-05-0.456D-04
 Coeff:     -0.436D-04 0.925D-04 0.534D-03 0.313D-03-0.138D-02-0.224D-02
 Coeff:      0.473D-03 0.129D-01 0.209D-01-0.227D-01-0.115D+00-0.712D-01
 Coeff:      0.203D+00 0.975D+00
 Gap=     0.123 Goal=   None    Shift=    0.000
 Gap=     0.132 Goal=   None    Shift=    0.000
 RMSDP=2.05D-09 MaxDP=4.10D-07 DE= 1.05D-09 OVMax= 3.65D-07

 Cycle  23  Pass 1  IDiag  1:
 RMSU=  4.04D-10    CP:  1.00D+00  1.25D+00
 E= -3371.64828171866     Delta-E=        0.000000000136 Rises=F Damp=F
 DIIS: error= 2.09D-09 at cycle  23 NSaved=  20.
 NSaved=20 IEnMin=18 EnMin= -3371.64828171985     IErMin=20 ErrMin= 2.09D-09
 ErrMax= 2.09D-09  0.00D+00 EMaxC= 1.00D-01 BMatC= 8.68D-14 BMatP= 1.93D-13
 IDIUse=1 WtCom= 1.00D+00 WtEn= 0.00D+00
 Coeff-Com: -0.206D-06 0.134D-06 0.257D-05 0.526D-05-0.356D-05-0.248D-04
 Coeff-Com: -0.312D-04 0.354D-05 0.382D-03 0.194D-03-0.942D-03-0.188D-02
 Coeff-Com:  0.187D-02 0.111D-01 0.108D-01-0.199D-01-0.878D-01-0.122D+00
 Coeff-Com:  0.470D+00 0.738D+00
 Coeff:     -0.206D-06 0.134D-06 0.257D-05 0.526D-05-0.356D-05-0.248D-04
 Coeff:     -0.312D-04 0.354D-05 0.382D-03 0.194D-03-0.942D-03-0.188D-02
 Coeff:      0.187D-02 0.111D-01 0.108D-01-0.199D-01-0.878D-01-0.122D+00
 Coeff:      0.470D+00 0.738D+00
 Gap=     0.123 Goal=   None    Shift=    0.000
 Gap=     0.132 Goal=   None    Shift=    0.000
 RMSDP=7.53D-10 MaxDP=1.38D-07 DE= 1.36D-10 OVMax= 2.24D-07

 Error on total polarization charges =  0.03199
 SCF Done:  E(UM062X) =  -3371.64828172     A.U. after   23 cycles
            NFock= 23  Conv=0.75D-09     -V/T= 2.0056
 <Sx>= 0.0000 <Sy>= 0.0000 <Sz>= 0.5000 <S**2>= 0.7955 S= 0.5225
 <L.S>= 0.000000000000E+00
 KE= 3.352967505802D+03 PE=-3.096192664514D+04 EE= 1.270457119324D+04
 Annihilation of the first spin contaminant:
 S**2 before annihilation     0.7955,   after     0.7517
 Leave Link  502 at Thu Nov  6 21:52:38 2025, MaxMem= 30870077440 cpu:          401968.2 elap:            6354.2
 (Enter /public/software/gauss/g16/l601.exe)
 Copying SCF densities to generalized density rwf, IOpCl= 1 IROHF=0.
 Hyperfine terms turned off by default for NAtoms > 100.

 **********************************************************************

            Population analysis using the SCF density.

 **********************************************************************

 Orbital symmetries:
 Alpha Orbitals:
       Occupied  (A) (A) (A) (A) (A) (A) (A) (A) (A) (A) (A) (A)
                 (A) (A) (A) (A) (A) (A) (A) (A) (A) (A) (A) (A)
                 (A) (A) (A) (A) (A) (A) (A) (A) (A) (A) (A) (A)
                 (A) (A) (A) (A) (A) (A) (A) (A) (A) (A) (A) (A)
                 (A) (A) (A) (A) (A) (A) (A) (A) (A) (A) (A) (A)
                 (A) (A) (A) (A) (A) (A) (A) (A) (A) (A) (A) (A)
                 (A) (A) (A) (A) (A) (A) (A) (A) (A) (A) (A) (A)
                 (A) (A) (A) (A) (A) (A) (A) (A) (A) (A) (A) (A)
                 (A) (A) (A) (A) (A) (A) (A) (A) (A) (A) (A) (A)
                 (A) (A) (A) (A) (A) (A) (A) (A) (A) (A) (A) (A)
                 (A) (A) (A) (A) (A) (A) (A) (A) (A) (A) (A) (A)
                 (A) (A) (A) (A) (A) (A) (A) (A) (A) (A) (A) (A)
                 (A) (A) (A) (A) (A) (A) (A) (A) (A) (A) (A) (A)
                 (A) (A) (A) (A) (A) (A) (A) (A) (A) (A) (A) (A)
                 (A) (A) (A) (A) (A) (A) (A) (A) (A) (A) (A) (A)
                 (A) (A) (A) (A) (A) (A) (A) (A) (A) (A) (A) (A)
                 (A) (A) (A) (A) (A) (A) (A) (A) (A) (A) (A) (A)
                 (A) (A) (A) (A) (A) (A) (A) (A) (A) (A) (A) (A)
                 (A) (A) (A) (A) (A) (A) (A) (A) (A) (A) (A) (A)
                 (A) (A) (A) (A) (A) (A) (A) (A) (A) (A) (A) (A)
                 (A) (A) (A) (A) (A) (A) (A) (A) (A) (A) (A) (A)
                 (A) (A) (A) (A) (A) (A) (A) (A) (A) (A) (A) (A)
                 (A) (A) (A) (A) (A) (A) (A) (A) (A) (A) (A)
       Virtual   (A) (A) (A) (A) (A) (A) (A) (A) (A) (A) (A) (A)
                 (A) (A) (A) (A) (A) (A) (A) (A) (A) (A) (A) (A)
                 (A) (A) (A) (A) (A) (A) (A) (A) (A) (A) (A) (A)
                 (A) (A) (A) (A) (A) (A) (A) (A) (A) (A) (A) (A)
                 (A) (A) (A) (A) (A) (A) (A) (A) (A) (A) (A) (A)
                 (A) (A) (A) (A) (A) (A) (A) (A) (A) (A) (A) (A)
                 (A) (A) (A) (A) (A) (A) (A) (A) (A) (A) (A) (A)
                 (A) (A) (A) (A) (A) (A) (A) (A) (A) (A) (A) (A)
                 (A) (A) (A) (A) (A) (A) (A) (A) (A) (A) (A) (A)
                 (A) (A) (A) (A) (A) (A) (A) (A) (A) (A) (A) (A)
                 (A) (A) (A) (A) (A) (A) (A) (A) (A) (A) (A) (A)
                 (A) (A) (A) (A) (A) (A) (A) (A) (A) (A) (A) (A)
                 (A) (A) (A) (A) (A) (A) (A) (A) (A) (A) (A) (A)
                 (A) (A) (A) (A) (A) (A) (A) (A) (A) (A) (A) (A)
                 (A) (A) (A) (A) (A) (A) (A) (A) (A) (A) (A) (A)
                 (A) (A) (A) (A) (A) (A) (A) (A) (A) (A) (A) (A)
                 (A) (A) (A) (A) (A) (A) (A) (A) (A) (A) (A) (A)
                 (A) (A) (A) (A) (A) (A) (A) (A) (A) (A) (A) (A)
                 (A) (A) (A) (A) (A) (A) (A) (A) (A) (A) (A) (A)
                 (A) (A) (A) (A) (A) (A) (A) (A) (A) (A) (A) (A)
                 (A) (A) (A) (A) (A) (A) (A) (A) (A) (A) (A) (A)
                 (A) (A) (A) (A) (A) (A) (A) (A) (A) (A) (A) (A)
                 (A) (A) (A) (A) (A) (A) (A) (A) (A) (A) (A) (A)
                 (A) (A) (A) (A) (A) (A) (A) (A) (A) (A) (A) (A)
                 (A) (A) (A) (A) (A) (A) (A) (A) (A) (A) (A) (A)
                 (A) (A) (A) (A) (A) (A) (A) (A) (A) (A) (A) (A)
                 (A) (A) (A) (A) (A) (A) (A) (A) (A) (A) (A) (A)
                 (A) (A) (A) (A) (A) (A) (A) (A) (A) (A) (A) (A)
                 (A) (A) (A) (A) (A) (A) (A) (A) (A) (A) (A) (A)
                 (A) (A) (A) (A) (A) (A) (A) (A) (A) (A) (A) (A)
                 (A) (A) (A) (A) (A) (A) (A) (A) (A) (A) (A) (A)
                 (A) (A) (A) (A) (A) (A) (A) (A) (A) (A) (A) (A)
                 (A) (A) (A) (A) (A) (A) (A) (A) (A) (A) (A) (A)
                 (A) (A) (A) (A) (A) (A) (A) (A) (A) (A) (A) (A)
                 (A) (A) (A) (A) (A) (A) (A) (A) (A) (A) (A) (A)
                 (A) (A) (A) (A) (A) (A) (A) (A) (A) (A) (A) (A)
                 (A) (A) (A) (A) (A) (A) (A) (A) (A) (A) (A) (A)
                 (A) (A) (A) (A) (A) (A) (A) (A) (A) (A) (A) (A)
                 (A) (A) (A) (A) (A) (A) (A) (A) (A) (A) (A) (A)
                 (A) (A) (A) (A) (A) (A) (A) (A) (A) (A) (A) (A)
                 (A) (A) (A) (A) (A) (A) (A) (A) (A) (A) (A) (A)
                 (A) (A) (A) (A) (A) (A) (A) (A) (A) (A) (A) (A)
                 (A) (A) (A) (A) (A) (A) (A) (A) (A) (A) (A) (A)
                 (A) (A) (A) (A) (A) (A) (A) (A) (A) (A) (A) (A)
                 (A) (A) (A) (A) (A) (A) (A) (A) (A) (A) (A) (A)
                 (A) (A) (A) (A) (A) (A) (A) (A) (A) (A) (A) (A)
                 (A) (A) (A) (A) (A) (A) (A) (A) (A) (A) (A) (A)
                 (A) (A) (A) (A) (A) (A) (A) (A) (A) (A) (A) (A)
                 (A) (A) (A) (A) (A) (A) (A) (A) (A) (A) (A) (A)
                 (A) (A) (A) (A) (A) (A) (A) (A) (A) (A) (A) (A)
                 (A) (A) (A) (A) (A) (A) (A) (A) (A) (A) (A) (A)
                 (A) (A) (A) (A) (A) (A) (A) (A) (A) (A) (A) (A)
                 (A) (A) (A) (A) (A) (A) (A) (A) (A) (A) (A) (A)
                 (A) (A) (A) (A) (A) (A) (A) (A) (A) (A) (A) (A)
                 (A) (A) (A) (A) (A) (A) (A) (A) (A) (A) (A) (A)
                 (A) (A) (A) (A) (A) (A) (A) (A) (A) (A) (A) (A)
                 (A) (A) (A) (A) (A) (A) (A) (A) (A) (A) (A) (A)
                 (A) (A) (A) (A) (A) (A) (A) (A) (A) (A) (A) (A)
                 (A) (A) (A) (A) (A) (A) (A) (A) (A) (A) (A) (A)
                 (A) (A) (A) (A) (A) (A) (A) (A) (A) (A) (A) (A)
                 (A) (A) (A) (A) (A) (A) (A) (A) (A) (A) (A) (A)
                 (A) (A) (A) (A) (A) (A) (A) (A) (A) (A) (A) (A)
                 (A) (A) (A) (A) (A) (A) (A) (A) (A) (A) (A) (A)
                 (A) (A) (A) (A) (A) (A) (A) (A) (A) (A) (A) (A)
                 (A) (A) (A) (A) (A) (A) (A) (A) (A) (A) (A) (A)
                 (A) (A) (A) (A) (A) (A) (A) (A) (A) (A) (A) (A)
                 (A) (A) (A) (A) (A) (A) (A) (A) (A) (A) (A) (A)
                 (A) (A) (A) (A) (A) (A) (A) (A) (A) (A) (A) (A)
                 (A) (A) (A) (A) (A) (A) (A) (A) (A) (A) (A) (A)
                 (A) (A) (A) (A) (A) (A) (A) (A) (A) (A) (A) (A)
                 (A) (A) (A) (A) (A) (A) (A) (A) (A) (A) (A) (A)
                 (A) (A) (A) (A) (A) (A) (A) (A) (A) (A) (A) (A)
                 (A) (A) (A) (A) (A) (A) (A) (A) (A) (A) (A) (A)
                 (A) (A) (A) (A) (A) (A) (A) (A) (A) (A) (A) (A)
                 (A) (A) (A) (A) (A) (A) (A) (A) (A) (A) (A) (A)
                 (A) (A) (A) (A) (A) (A) (A) (A) (A) (A) (A) (A)
                 (A) (A) (A) (A) (A) (A) (A) (A) (A) (A) (A) (A)
                 (A) (A) (A) (A) (A) (A) (A) (A) (A) (A) (A) (A)
                 (A) (A) (A) (A) (A) (A) (A) (A) (A) (A) (A) (A)
                 (A) (A) (A) (A) (A) (A) (A) (A) (A) (A) (A) (A)
                 (A) (A) (A) (A) (A) (A) (A) (A) (A) (A) (A) (A)
                 (A) (A) (A) (A) (A) (A) (A) (A) (A) (A) (A) (A)
                 (A) (A) (A) (A) (A) (A) (A) (A) (A) (A) (A) (A)
                 (A) (A) (A) (A) (A) (A) (A) (A) (A) (A) (A) (A)
                 (A) (A) (A) (A) (A) (A) (A) (A) (A) (A) (A) (A)
                 (A) (A) (A) (A) (A) (A) (A) (A) (A) (A) (A) (A)
                 (A) (A) (A) (A) (A) (A) (A) (A) (A) (A) (A) (A)
                 (A) (A) (A) (A) (A) (A) (A) (A) (A) (A) (A) (A)
                 (A) (A) (A) (A) (A) (A) (A) (A) (A) (A) (A) (A)
                 (A) (A) (A) (A) (A) (A) (A) (A) (A) (A) (A) (A)
                 (A) (A) (A) (A) (A) (A) (A) (A) (A) (A) (A) (A)
                 (A) (A) (A) (A) (A) (A) (A) (A) (A) (A) (A) (A)
                 (A) (A) (A) (A) (A) (A) (A) (A) (A) (A) (A) (A)
                 (A) (A) (A) (A) (A) (A) (A) (A) (A) (A) (A) (A)
                 (A) (A) (A) (A) (A) (A) (A) (A) (A) (A) (A) (A)
                 (A) (A) (A) (A) (A) (A) (A) (A) (A) (A) (A) (A)
                 (A) (A) (A) (A) (A) (A) (A) (A) (A) (A) (A) (A)
                 (A) (A) (A) (A) (A) (A) (A) (A) (A) (A) (A) (A)
                 (A) (A) (A) (A) (A) (A) (A) (A) (A) (A) (A) (A)
                 (A) (A) (A) (A) (A) (A) (A) (A) (A) (A) (A) (A)
                 (A) (A) (A) (A) (A) (A) (A) (A) (A) (A) (A) (A)
                 (A) (A) (A) (A) (A) (A) (A) (A) (A) (A) (A) (A)
                 (A) (A) (A) (A) (A) (A) (A) (A) (A) (A) (A) (A)
                 (A) (A) (A) (A) (A) (A) (A) (A) (A) (A) (A) (A)
                 (A) (A) (A) (A) (A) (A) (A) (A) (A) (A) (A) (A)
                 (A) (A) (A) (A) (A) (A) (A) (A) (A) (A) (A) (A)
                 (A) (A) (A) (A) (A) (A) (A) (A) (A) (A) (A) (A)
                 (A) (A) (A) (A) (A) (A) (A) (A) (A) (A) (A) (A)
                 (A) (A) (A) (A) (A) (A) (A) (A) (A) (A) (A) (A)
                 (A) (A) (A) (A) (A) (A) (A) (A) (A) (A) (A) (A)
                 (A) (A) (A) (A) (A) (A) (A) (A) (A) (A) (A) (A)
                 (A) (A) (A) (A) (A) (A) (A) (A) (A) (A) (A) (A)
                 (A) (A) (A) (A) (A) (A) (A) (A) (A) (A) (A) (A)
                 (A) (A) (A) (A) (A) (A) (A) (A) (A) (A) (A) (A)
                 (A) (A) (A) (A) (A) (A) (A) (A) (A) (A) (A) (A)
                 (A) (A) (A) (A) (A) (A) (A) (A) (A) (A) (A) (A)
                 (A) (A) (A) (A) (A) (A) (A) (A) (A) (A) (A) (A)
                 (A) (A) (A) (A) (A) (A) (A) (A) (A) (A) (A) (A)
                 (A) (A) (A) (A) (A) (A) (A) (A) (A) (A) (A) (A)
                 (A) (A) (A) (A) (A) (A) (A) (A) (A) (A) (A) (A)
                 (A) (A) (A) (A) (A) (A) (A) (A) (A) (A) (A) (A)
                 (A) (A) (A) (A) (A) (A) (A) (A) (A) (A) (A) (A)
                 (A) (A) (A) (A) (A) (A) (A) (A) (A) (A) (A) (A)
                 (A) (A) (A) (A) (A) (A) (A) (A) (A) (A) (A) (A)
                 (A) (A) (A) (A) (A) (A) (A) (A) (A) (A) (A) (A)
                 (A) (A) (A) (A) (A) (A) (A) (A) (A) (A) (A) (A)
                 (A) (A) (A) (A) (A) (A) (A) (A) (A) (A) (A) (A)
                 (A) (A) (A) (A) (A) (A) (A) (A) (A) (A) (A) (A)
                 (A) (A) (A) (A) (A) (A) (A) (A) (A) (A) (A) (A)
                 (A) (A) (A) (A) (A) (A) (A) (A) (A) (A) (A) (A)
                 (A) (A) (A) (A) (A) (A) (A) (A) (A) (A) (A) (A)
                 (A) (A) (A) (A) (A) (A) (A) (A) (A) (A) (A) (A)
                 (A) (A) (A) (A) (A) (A) (A) (A) (A) (A) (A) (A)
                 (A) (A) (A) (A) (A) (A) (A) (A) (A) (A) (A) (A)
                 (A) (A) (A) (A) (A) (A) (A) (A) (A) (A) (A) (A)
                 (A) (A) (A) (A) (A) (A) (A) (A) (A) (A) (A) (A)
                 (A) (A) (A) (A) (A) (A) (A) (A) (A) (A) (A) (A)
                 (A) (A) (A) (A) (A) (A) (A) (A) (A) (A) (A) (A)
                 (A) (A) (A) (A) (A) (A) (A) (A) (A) (A) (A) (A)
                 (A) (A) (A) (A) (A) (A) (A) (A) (A) (A) (A) (A)
                 (A) (A) (A) (A) (A) (A) (A) (A) (A) (A) (A) (A)
                 (A) (A) (A) (A) (A) (A) (A) (A) (A) (A) (A) (A)
                 (A) (A) (A) (A) (A) (A) (A) (A) (A) (A) (A) (A)
                 (A) (A) (A) (A) (A) (A) (A) (A) (A) (A) (A) (A)
                 (A) (A) (A) (A) (A) (A) (A) (A) (A) (A) (A) (A)
                 (A) (A) (A) (A) (A) (A) (A) (A) (A) (A) (A) (A)
                 (A) (A) (A) (A) (A) (A) (A) (A) (A) (A) (A) (A)
                 (A) (A) (A) (A) (A) (A) (A) (A) (A) (A) (A) (A)
                 (A) (A) (A) (A) (A) (A) (A) (A) (A) (A) (A) (A)
                 (A) (A) (A) (A) (A) (A) (A) (A) (A) (A) (A) (A)
                 (A) (A) (A) (A) (A) (A) (A) (A) (A) (A) (A) (A)
                 (A) (A) (A) (A) (A) (A) (A) (A) (A) (A) (A) (A)
                 (A) (A) (A) (A) (A) (A) (A) (A) (A) (A) (A) (A)
                 (A) (A) (A) (A) (A) (A) (A) (A) (A) (A) (A) (A)
                 (A) (A) (A) (A) (A) (A) (A) (A) (A) (A) (A) (A)
                 (A) (A) (A) (A) (A) (A) (A) (A) (A) (A) (A) (A)
                 (A) (A) (A) (A) (A) (A) (A) (A) (A) (A) (A) (A)
                 (A) (A) (A) (A) (A) (A) (A) (A) (A) (A) (A) (A)
                 (A) (A) (A) (A) (A) (A) (A) (A) (A) (A) (A) (A)
                 (A) (A) (A) (A) (A) (A) (A) (A) (A) (A) (A) (A)
                 (A) (A) (A) (A) (A) (A) (A) (A) (A) (A) (A) (A)
                 (A) (A) (A) (A) (A) (A) (A) (A) (A) (A) (A) (A)
                 (A) (A) (A) (A) (A) (A) (A) (A) (A) (A) (A) (A)
                 (A) (A) (A) (A) (A) (A) (A) (A) (A) (A) (A) (A)
                 (A) (A) (A) (A) (A) (A) (A) (A) (A) (A) (A) (A)
[...]
  Beta virt. eigenvalues --    5.27352   5.27396   5.27578   5.28142   5.28423
  Beta virt. eigenvalues --    5.28462   5.29047   5.29172   5.29258   5.29464
  Beta virt. eigenvalues --    5.29707   5.29794   5.29902   5.30297   5.30447
  Beta virt. eigenvalues --    5.30529   5.30662   5.31041   5.31274   5.31384
  Beta virt. eigenvalues --    5.31619   5.31757   5.32009   5.32180   5.32198
  Beta virt. eigenvalues --    5.32457   5.32954   5.33126   5.34223   5.34427
  Beta virt. eigenvalues --    5.35343   5.35703   5.35783   5.36031   5.36377
  Beta virt. eigenvalues --    5.36464   5.36719   5.36994   5.37400   5.37781
  Beta virt. eigenvalues --    5.37875   5.38158   5.38458   5.38878   5.39023
  Beta virt. eigenvalues --    5.39418   5.39656   5.40127   5.40256   5.40554
  Beta virt. eigenvalues --    5.40697   5.40972   5.41175   5.41415   5.41441
  Beta virt. eigenvalues --    5.41792   5.41983   5.42050   5.42471   5.42654
  Beta virt. eigenvalues --    5.42947   5.43082   5.43334   5.43456   5.44016
  Beta virt. eigenvalues --    5.44217   5.44892   5.45348   5.46292   5.46488
  Beta virt. eigenvalues --    5.48542   5.48753   5.49117   5.49232   5.49243
  Beta virt. eigenvalues --    5.49612   5.50594   5.50681   5.50838   5.51070
  Beta virt. eigenvalues --    5.51411   5.52239   5.53134   5.53332   5.53510
  Beta virt. eigenvalues --    5.53864   5.53901   5.53939   5.54458   5.54649
  Beta virt. eigenvalues --    5.54770   5.55666   5.55918   5.56197   5.57311
  Beta virt. eigenvalues --    5.57490   5.58297   5.58417   5.58762   5.59115
  Beta virt. eigenvalues --    5.59417   5.60219   5.61287   5.61410   5.61805
  Beta virt. eigenvalues --    5.61971   5.62162   5.62515   5.62855   5.63090
  Beta virt. eigenvalues --    5.63614   5.63812   5.64484   5.64689   5.64979
  Beta virt. eigenvalues --    5.65023   5.65251   5.65569   5.65849   5.65980
  Beta virt. eigenvalues --    5.67014   5.67208   5.67626   5.68556   5.68883
  Beta virt. eigenvalues --    5.69119   5.69704   5.70362   5.70853   5.71250
  Beta virt. eigenvalues --    5.73151   5.73981   5.74299   5.74908   5.75401
  Beta virt. eigenvalues --    5.76329   5.76610   5.76980   5.77609   5.78437
  Beta virt. eigenvalues --    5.78893   5.79875   5.80958   5.81187   5.82089
  Beta virt. eigenvalues --    5.82503   5.82944   5.84399   5.84545   5.84659
  Beta virt. eigenvalues --    5.84739   5.84822   5.87228   5.87275   5.87700
  Beta virt. eigenvalues --    5.89521   5.91210   5.92792   5.95101   5.95500
  Beta virt. eigenvalues --    5.96453   5.97219   6.00190   6.00796   6.01117
  Beta virt. eigenvalues --    6.01626   6.01764   6.01956   6.01996   6.02314
  Beta virt. eigenvalues --    6.02533   6.02962   6.04488   6.04666   6.05085
  Beta virt. eigenvalues --    6.05228   6.05687   6.07028   6.10736   6.13829
  Beta virt. eigenvalues --    6.15107   6.15815   6.16485   6.19614   6.20739
  Beta virt. eigenvalues --    6.20913   6.21190   6.23827   6.27942   6.31789
  Beta virt. eigenvalues --    6.32882   6.33014   6.36734   6.37536   6.38033
  Beta virt. eigenvalues --    6.40683   6.42326   6.42556   6.43344   6.43742
  Beta virt. eigenvalues --    6.56127   6.62978   6.63657   6.70074   6.70130
  Beta virt. eigenvalues --    6.70713   6.71783   6.73233   6.73407   6.74906
  Beta virt. eigenvalues --    6.75739   6.78091   6.83852   6.84115   6.84217
  Beta virt. eigenvalues --    6.84762   6.85337   6.91378   6.91462   6.91481
  Beta virt. eigenvalues --    6.92525   6.96390   6.97989   7.00209   7.01152
  Beta virt. eigenvalues --    7.01718   7.03854   7.04133   7.06028   7.08417
  Beta virt. eigenvalues --    7.12912   7.19360   7.24146   7.25825   7.27708
  Beta virt. eigenvalues --    7.27780   7.28448   7.29211   7.29245   7.34950
  Beta virt. eigenvalues --    7.35520   7.44992   7.44998   7.45893   7.46518
  Beta virt. eigenvalues --    8.49049   8.54084   8.59148   8.65008   8.83379
  Beta virt. eigenvalues --    8.88375   8.93521   8.95534   8.97678   9.02913
  Beta virt. eigenvalues --   15.85113  22.83772  22.84291  22.85967  22.86627
  Beta virt. eigenvalues --   22.87452  22.89845  22.94938  22.96288  22.97503
  Beta virt. eigenvalues --   23.12402  23.13632  23.14170  23.15179  23.15335
  Beta virt. eigenvalues --   23.15535  23.15728  23.16566  23.16833  23.17886
  Beta virt. eigenvalues --   23.18275  23.18689  23.19526  23.19726  23.28444
  Beta virt. eigenvalues --   23.28515  23.29032  23.29147  23.29416  23.31427
  Beta virt. eigenvalues --   23.32472  23.34250  23.34599  23.36915  23.37203
  Beta virt. eigenvalues --   23.37712  23.38148  23.39574  23.39664  23.40032
  Beta virt. eigenvalues --   23.40266  23.41746  23.43280  23.46561  23.48570
  Beta virt. eigenvalues --   23.50758  23.52556  23.58673  23.59410  23.60552
  Beta virt. eigenvalues --   23.64545  23.64559  23.65186  23.68480  23.70419
  Beta virt. eigenvalues --   23.71143  23.73765  23.75990  23.87497  23.90831
  Beta virt. eigenvalues --   23.99749  23.99991  24.00843  24.01148  24.09328
  Beta virt. eigenvalues --   24.09963  24.17414  33.16609  33.27956  33.45406
  Beta virt. eigenvalues --   33.45464  44.00881  44.49162  44.49190  44.50468
  Beta virt. eigenvalues --   44.51607  57.48533  57.60960
          Condensed to atoms (all electrons):
          Atomic-Atomic Spin Densities.
 Mulliken charges and spin densities:
               1          2
     1  C   -0.303353  -0.003537
     2  C   -0.403748   0.008573
     3  C   -0.005625  -0.075381
     4  C    0.028763   0.152795
     5  C   -0.455024  -0.012250
     6  C    0.051423  -0.088501
     7  C    0.124408   0.348093
     8  C    0.050991  -0.089053
     9  C    0.030913   0.153024
    10  C   -0.452498  -0.012489
    11  C   -0.007902  -0.073584
    12  C   -0.401257   0.008803
    13  C   -0.303695  -0.003527
    14  C    0.082501   0.178933
    15  C   -0.144896  -0.109757
    16  C   -0.160382   0.154194
    17  C    0.025183  -0.038241
    18  C   -0.178524   0.044531
    19  C   -0.163932  -0.025015
    20  C    0.010551   0.047698
    21  C   -0.160192  -0.026932
    22  C   -0.148312   0.039801
    23  N   -0.111270   0.007388
    24  C   -0.047578  -0.002078
    25  C   -0.140623   0.002176
    26  C   -0.169175  -0.001218
    27  C    0.208385   0.002149
    28  O   -0.311543   0.000257
    29  C   -0.245734  -0.000023
    30  C   -0.156861  -0.001556
    31  C   -0.173852   0.002825
    32  C   -0.034709  -0.002045
    33  C   -0.174741   0.003016
    34  C   -0.164690  -0.001574
    35  C    0.208406   0.002224
    36  O   -0.313662   0.000260
    37  C   -0.260100  -0.000028
    38  C   -0.173712  -0.001315
    39  C   -0.140737   0.002227
    40  N   -0.167305   0.031659
    41  B    0.385126   0.002718
    42  F   -0.367339   0.001032
    43  F   -0.367742   0.001097
    44  N   -0.165643   0.032477
    45  C    0.081005   0.179388
    46  C   -0.150346  -0.109083
    47  C   -0.150239   0.153514
    48  C    0.028258  -0.038681
    49  C   -0.139729   0.041244
    50  C   -0.159373  -0.027706
    51  C   -0.001717   0.049441
    52  C   -0.156353  -0.026144
    53  C   -0.186751   0.045521
    54  N   -0.110105   0.007165
    55  C   -0.038291  -0.002336
    56  C   -0.150475   0.002763
    57  C   -0.171950  -0.001538
    58  C    0.205415   0.002274
    59  O   -0.312305   0.000256
    60  C   -0.245346  -0.000024
    61  C   -0.157717  -0.001329
    62  C   -0.168145   0.002727
    63  C   -0.052811  -0.002111
    64  C   -0.167338   0.002538
    65  C   -0.149448  -0.001281
    66  C    0.220335   0.002132
    67  O   -0.321219   0.000236
    68  C   -0.274810  -0.000018
    69  C   -0.174566  -0.001454
    70  C   -0.143195   0.002564
    71  C   -0.214285  -0.036083
    72  C   -0.160456   0.034334
    73  C   -0.119827  -0.018990
    74  C   -0.016156   0.038699
    75  C    0.159140  -0.000740
    76  O   -0.393387   0.017368
    77  C   -0.092258  -0.022763
    78  C   -0.171669   0.040509
    79  H    0.121629  -0.000293
    80  H    0.110711   0.000462
    81  H    0.112415  -0.000154
    82  H    0.114918  -0.002125
    83  H    0.127057  -0.000957
    84  H    0.126627   0.001555
    85  H    0.146927   0.008293
    86  H    0.147561   0.004481
    87  H    0.126668   0.001495
    88  H    0.146501   0.008398
    89  H    0.146795   0.004635
    90  H    0.126317  -0.000906
    91  H    0.114998  -0.002187
    92  H    0.110994   0.000483
    93  H    0.112199  -0.000154
    94  H    0.121686  -0.000284
    95  H    0.096179   0.003912
    96  H    0.128710  -0.009179
    97  H    0.143434  -0.000891
    98  H    0.165327   0.000262
    99  H    0.167496   0.000399
   100  H    0.133532  -0.001081
   101  H    0.169519  -0.000088
   102  H    0.156313   0.000010
   103  H    0.144925   0.000025
   104  H    0.144137   0.000025
   105  H    0.147207  -0.000001
   106  H    0.153037   0.000047
   107  H    0.172601  -0.000374
   108  H    0.174186  -0.000436
   109  H    0.151457   0.000043
   110  H    0.151114   0.000025
   111  H    0.143705   0.000035
   112  H    0.154099  -0.000002
   113  H    0.156451   0.000015
   114  H    0.168989  -0.000086
   115  H    0.097487   0.004548
   116  H    0.127166  -0.009414
   117  H    0.132495  -0.001284
   118  H    0.167107   0.000416
   119  H    0.166110   0.000247
   120  H    0.145512  -0.001341
   121  H    0.172842  -0.000382
   122  H    0.155401   0.000053
   123  H    0.143475   0.000026
   124  H    0.147053  -0.000002
   125  H    0.144654   0.000021
   126  H    0.152771   0.000008
   127  H    0.169202  -0.000111
   128  H    0.169112  -0.000096
   129  H    0.155616   0.000005
   130  H    0.158331   0.000017
   131  H    0.157983   0.000023
   132  H    0.146196  -0.000002
   133  H    0.155011   0.000049
   134  H    0.171564  -0.000343
   135  H    0.175817  -0.000485
   136  H    0.161809   0.000536
   137  H    0.085988  -0.000145
   138  H    0.155827   0.000689
   139  H    0.174876  -0.000676
 Sum of Mulliken charges =  -1.00000   1.00000
 Mulliken charges and spin densities with hydrogens summed into heavy atoms:
               1          2
     1  C    0.041401  -0.003522
     2  C   -0.161773   0.005491
     3  C   -0.005625  -0.075381
     4  C    0.028763   0.152795
     5  C   -0.033909   0.002079
     6  C    0.051423  -0.088501
     7  C    0.124408   0.348093
     8  C    0.050991  -0.089053
     9  C    0.030913   0.153024
    10  C   -0.032535   0.002040
    11  C   -0.007902  -0.073584
    12  C   -0.159942   0.005710
    13  C    0.041185  -0.003482
    14  C    0.082501   0.178933
    15  C   -0.048718  -0.105844
    16  C   -0.031673   0.145015
    17  C    0.025183  -0.038241
    18  C   -0.035090   0.043640
    19  C    0.001395  -0.024753
    20  C    0.010551   0.047698
    21  C    0.007304  -0.026533
    22  C   -0.014779   0.038721
    23  N   -0.111270   0.007388
    24  C   -0.047578  -0.002078
    25  C    0.028895   0.002088
    26  C   -0.012862  -0.001208
    27  C    0.208385   0.002149
    28  O   -0.311543   0.000257
    29  C    0.190534   0.000026
    30  C   -0.003825  -0.001509
    31  C   -0.001251   0.002450
    32  C   -0.034709  -0.002045
    33  C   -0.000555   0.002580
    34  C   -0.013233  -0.001531
    35  C    0.208406   0.002224
    36  O   -0.313662   0.000260
    37  C    0.188818   0.000030
    38  C   -0.017261  -0.001300
    39  C    0.028252   0.002141
    40  N   -0.167305   0.031659
    41  B    0.385126   0.002718
    42  F   -0.367339   0.001032
    43  F   -0.367742   0.001097
    44  N   -0.165643   0.032477
    45  C    0.081005   0.179388
    46  C   -0.052859  -0.104536
    47  C   -0.023073   0.144099
    48  C    0.028258  -0.038681
    49  C   -0.007234   0.039960
    50  C    0.007734  -0.027289
    51  C   -0.001717   0.049441
    52  C    0.009757  -0.025898
    53  C   -0.041238   0.044179
    54  N   -0.110105   0.007165
    55  C   -0.038291  -0.002336
    56  C    0.022367   0.002381
    57  C   -0.016550  -0.001485
    58  C    0.205415   0.002274
    59  O   -0.312305   0.000256
    60  C    0.189836   0.000021
    61  C   -0.004946  -0.001321
    62  C    0.001057   0.002615
    63  C   -0.052811  -0.002111
    64  C    0.001774   0.002442
    65  C    0.006168  -0.001276
    66  C    0.220335   0.002132
    67  O   -0.321219   0.000236
    68  C    0.187700   0.000020
    69  C   -0.019555  -0.001404
    70  C    0.028368   0.002221
    71  C   -0.214285  -0.036083
    72  C    0.015361   0.033850
    73  C    0.041981  -0.018454
    74  C   -0.016156   0.038699
    75  C    0.245129  -0.000885
    76  O   -0.393387   0.017368
    77  C    0.063569  -0.022074
    78  C    0.003207   0.039833
 Electronic spatial extent (au):  <R**2>=         117646.2454
 Charge=             -1.0000 electrons
 Dipole moment (field-independent basis, Debye):
    X=            -22.3702    Y=              1.2380    Z=              1.8430  Tot=             22.4801
 Quadrupole moment (field-independent basis, Debye-Ang):
   XX=           -564.6095   YY=           -416.8737   ZZ=           -464.1081
   XY=             74.9484   XZ=             36.3171   YZ=             -3.1641
 Traceless Quadrupole moment (field-independent basis, Debye-Ang):
   XX=            -82.7457   YY=             64.9901   ZZ=             17.7557
   XY=             74.9484   XZ=             36.3171   YZ=             -3.1641
 Octapole moment (field-independent basis, Debye-Ang**2):
  XXX=          -2436.0906  YYY=             91.4853  ZZZ=             -0.8006  XYY=           -167.0707
  XXY=            -39.6969  XXZ=            180.9589  XZZ=            -46.3193  YZZ=             11.9748
  YYZ=            261.5999  XYZ=              8.2541
 Hexadecapole moment (field-independent basis, Debye-Ang**3):
 XXXX=        -107958.7390 YYYY=         -59837.2536 ZZZZ=          -2071.6995 XXXY=           7983.0873
 XXXZ=           5601.2083 YYYX=           4128.1630 YYYZ=            192.2036 ZZZX=             -5.7430
 ZZZY=             60.6164 XXYY=         -25642.3962 XXZZ=         -15097.5446 YYZZ=         -12142.0683
 XXYZ=           -326.0707 YYXZ=           -913.7327 ZZXY=            -29.7978
 N-N= 1.153273966438D+04 E-N=-3.096192664560D+04  KE= 3.352967505803D+03
 Leave Link  601 at Thu Nov  6 21:52:43 2025, MaxMem= 30870077440 cpu:             240.7 elap:               4.4
 (Enter /public/software/gauss/g16/l9999.exe)
 1\1\GINC-CU015\SP\UM062X\def2TZVPP\C66H61B1F2N4O5(1-,2)\BAIDING\06-Nov
 -2025\0\\#p M062X/DEF2TZVPP scrf=(solvent=water) em=GD3\\Energy calcul
 ation for M100034661_reduced\\-1,2\C,0,5.019114,5.988279,-0.095361\C,0
 ,4.872207,5.016417,-1.279213\C,0,4.941518,3.566042,-0.878094\C,0,6.108
 342,2.794835,-0.782258\C,0,7.476882,3.27238,-1.178808\C,0,5.714624,1.5
 04611,-0.311638\C,0,6.480807,0.332203,-0.062479\C,0,5.82671,-0.902142,
 0.206747\C,0,6.342065,-2.148686,0.677378\C,0,7.755712,-2.500536,1.0458
 48\C,0,5.248978,-3.017035,0.807845\C,0,5.313889,-4.464395,1.219927\C,0
 ,5.513365,-5.4304,0.038933\C,0,4.076205,-2.312275,0.432491\C,0,2.77412
 4,-2.917984,0.422415\C,0,1.577654,-2.498402,-0.08184\C,0,0.333638,-3.2
 56763,-0.022352\C,0,0.15397,-4.432452,0.742693\C,0,-1.043525,-5.132374
 ,0.738017\C,0,-2.135912,-4.701339,-0.042105\C,0,-1.980904,-3.522483,-0
 .79449\C,0,-0.781082,-2.820823,-0.772024\N,0,-3.342813,-5.437037,-0.05
 9578\C,0,-3.316641,-6.860353,0.035626\C,0,-4.188285,-7.532397,0.909933
 \C,0,-4.181105,-8.918875,0.991722\C,0,-3.287236,-9.67035,0.21486\O,0,-
 3.352802,-11.033828,0.374575\C,0,-2.467037,-11.840096,-0.405945\C,0,-2
 .406755,-9.013392,-0.651983\C,0,-2.436014,-7.620202,-0.74389\C,0,-4.60
 1675,-4.785509,-0.204836\C,0,-4.912809,-3.633794,0.529165\C,0,-6.15286
 ,-3.004657,0.396327\C,0,-7.116761,-3.542254,-0.464008\O,0,-8.373266,-3
 .019296,-0.654681\C,0,-8.728117,-1.844949,0.080288\C,0,-6.816888,-4.69
 7856,-1.19943\C,0,-5.573203,-5.303928,-1.079257\N,0,4.442499,-1.015004
 ,0.080973\B,0,3.497071,0.200657,-0.025981\F,0,2.680772,0.232452,1.1318
 04\F,0,2.657239,0.094903,-1.162778\N,0,4.329001,1.495262,-0.153711\C,0
 ,3.843383,2.759145,-0.48246\C,0,2.494419,3.24857,-0.435802\C,0,1.34794
 9,2.70552,0.066095\C,0,0.03422,3.336379,0.045283\C,0,-1.05241,2.675419
 ,0.659719\C,0,-2.328884,3.222582,0.694414\C,0,-2.590317,4.469148,0.097
 379\C,0,-1.520625,5.137442,-0.531445\C,0,-0.247037,4.587128,-0.552198\
 N,0,-3.888282,5.03034,0.119734\C,0,-4.06894,6.436877,0.250251\C,0,-3.3
 20484,7.176646,1.183456\C,0,-3.499735,8.548107,1.309419\C,0,-4.448272,
 9.215881,0.521103\O,0,-4.557304,10.570546,0.729497\C,0,-5.501836,11.29
 2531,-0.064009\C,0,-5.208705,8.490228,-0.40209\C,0,-5.007028,7.115003,
 -0.538214\C,0,-5.032713,4.187126,0.011144\C,0,-6.117438,4.332437,0.883
 984\C,0,-7.248999,3.521161,0.772325\C,0,-7.297464,2.531538,-0.215251\O
 ,0,-8.355082,1.676618,-0.410194\C,0,-9.474125,1.783915,0.473727\C,0,-6
 .212117,2.371714,-1.089088\C,0,-5.099668,3.19594,-0.983662\C,0,7.96008
 7,0.396744,-0.081202\C,0,8.66128,1.200514,0.84626\C,0,10.045548,1.2578
 45,0.839697\C,0,10.780701,0.520185,-0.108627\C,0,12.241717,0.568303,-0
 .141648\O,0,12.945199,1.224623,0.628615\C,0,10.0933,-0.278428,-1.03959
 \C,0,8.706047,-0.343239,-1.021253\H,0,4.970513,7.029049,-0.434207\H,0,
 4.222747,5.834223,0.640427\H,0,5.977204,5.84413,0.415457\H,0,3.929192,
 5.223875,-1.796511\H,0,5.661663,5.228592,-2.00876\H,0,7.396529,4.13564
 ,-1.845606\H,0,8.087864,3.584004,-0.32327\H,0,8.043885,2.501723,-1.707
 097\H,0,7.766612,-3.360427,1.721718\H,0,8.372444,-2.766006,0.178875\H,
 0,8.264528,-1.677666,1.554284\H,0,6.136191,-4.603026,1.930553\H,0,4.40
 4359,-4.746259,1.761544\H,0,4.688286,-5.351468,-0.676824\H,0,6.442252,
 -5.209211,-0.497639\H,0,5.562804,-6.468543,0.385658\H,0,2.791085,-3.90
 9271,0.868508\H,0,1.522085,-1.554181,-0.609834\H,0,0.958759,-4.797054,
 1.373838\H,0,-1.143297,-6.022644,1.349853\H,0,-2.801998,-3.160767,-1.4
 04204\H,0,-0.689955,-1.918883,-1.372151\H,0,-4.876282,-6.96211,1.52555
 1\H,0,-4.855895,-9.436943,1.665933\H,0,-2.646626,-11.707568,-1.478691\
 H,0,-1.418547,-11.614481,-0.181628\H,0,-2.68141,-12.873121,-0.128761\H
 ,0,-1.710112,-9.568311,-1.268516\H,0,-1.760614,-7.120838,-1.430926\H,0
 ,-4.180506,-3.21943,1.214388\H,0,-6.357966,-2.114127,0.977999\H,0,-8.6
 81688,-2.020754,1.160903\H,0,-8.083857,-0.999373,-0.181128\H,0,-9.7565
 79,-1.618203,-0.20397\H,0,-7.566883,-5.103106,-1.871453\H,0,-5.351294,
 -6.191177,-1.662965\H,0,2.416129,4.247974,-0.855893\H,0,1.383965,1.736
 99,0.549017\H,0,-0.880158,1.712802,1.134717\H,0,-3.130729,2.685633,1.1
 90218\H,0,-1.697805,6.093091,-1.013831\H,0,0.539925,5.135644,-1.060841
 \H,0,-2.594473,6.671925,1.812261\H,0,-2.920505,9.116999,2.029991\H,0,-
 6.523786,10.935434,0.10613\H,0,-5.425581,12.333205,0.254036\H,0,-5.264
 636,11.221038,-1.131435\H,0,-5.945558,8.979537,-1.027461\H,0,-5.592638
 ,6.564469,-1.267193\H,0,-6.08233,5.089289,1.660987\H,0,-8.070977,3.661
 505,1.463753\H,0,-9.18417,1.585239,1.511314\H,0,-9.938426,2.77421,0.40
 8533\H,0,-10.188525,1.028509,0.144813\H,0,-6.263171,1.60657,-1.857394\
 H,0,-4.272503,3.072257,-1.674995\H,0,8.099238,1.766173,1.582723\H,0,10
 .577583,1.864269,1.566177\H,0,12.710529,-0.046743,-0.934319\H,0,10.657
 441,-0.840917,-1.779344\H,0,8.182308,-0.957617,-1.746581\\Version=ES64
 L-G16RevA.03\State=2-A\HF=-3371.6482817\S2=0.795457\S2-1=0.\S2A=0.7516
 52\RMSD=7.528e-10\Dipole=-8.8011315,-0.4870769,-0.7250866\Quadrupole=-
 61.5194113,48.3185191,13.2008921,-55.7223353,-27.0008728,-2.3524479\PG
 =C01 [X(C66H61B1F2N4O5)]\\@


  ON THE CHOICE OF THE CORRECT LANGUAGE -
 I SPEAK SPANISH TO GOD, ITALIAN TO WOMEN,
 FRENCH TO MEN, AND GERMAN TO MY HORSE.
          -- CHARLES V
 Job cpu time:       4 days 17 hours  7 minutes 55.5 seconds.
 Elapsed time:       0 days  1 hours 47 minutes 18.4 seconds.
 File lengths (MBytes):  RWF=  11329 Int=      0 D2E=      0 Chk=    741 Scr=      1
 Normal termination of Gaussian 16 at Thu Nov  6 21:52:46 2025.
