 Entering Gaussian System, Link 0=g16
 Input=M100034656_sp.gjf
 Output=M100034656_sp.log
 Initial command:
 /public/software/gauss/g16/l1.exe "/public/home/baiding/1101_v2_sp/tmp_M100034656_sp_1568608/Gau-4174125.inp" -scrdir="/public/home/baiding/1101_v2_sp/tmp_M100034656_sp_1568608/"
 Entering Link 1 = /public/software/gauss/g16/l1.exe PID=   4174126.
  
 Copyright (c) 1988,1990,1992,1993,1995,1998,2003,2009,2016,
            Gaussian, Inc.  All Rights Reserved.
  
 This is part of the Gaussian(R) 16 program.  It is based on
 the Gaussian(R) 09 system (copyright 2009, Gaussian, Inc.),
 the Gaussian(R) 03 system (copyright 2003, Gaussian, Inc.),
 the Gaussian(R) 98 system (copyright 1998, Gaussian, Inc.),
 the Gaussian(R) 94 system (copyright 1995, Gaussian, Inc.),
 the Gaussian 92(TM) system (copyright 1992, Gaussian, Inc.),
 the Gaussian 90(TM) system (copyright 1990, Gaussian, Inc.),
 the Gaussian 88(TM) system (copyright 1988, Gaussian, Inc.),
 the Gaussian 86(TM) system (copyright 1986, Carnegie Mellon
 University), and the Gaussian 82(TM) system (copyright 1983,
 Carnegie Mellon University). Gaussian is a federally registered
 trademark of Gaussian, Inc.
  
 This software contains proprietary and confidential information,
 including trade secrets, belonging to Gaussian, Inc.
  
 This software is provided under written license and may be
 used, copied, transmitted, or stored only in accord with that
 written license.
  
 The following legend is applicable only to US Government
 contracts under FAR:
  
                    RESTRICTED RIGHTS LEGEND
  
 Use, reproduction and disclosure by the US Government is
 subject to restrictions as set forth in subparagraphs (a)
 and (c) of the Commercial Computer Software - Restricted
 Rights clause in FAR 52.227-19.
  
 Gaussian, Inc.
 340 Quinnipiac St., Bldg. 40, Wallingford CT 06492
  
  
 ---------------------------------------------------------------
 Warning -- This program may not be used in any manner that
 competes with the business of Gaussian, Inc. or will provide
 assistance to any competitor of Gaussian, Inc.  The licensee
 of this program is prohibited from giving any competitor of
 Gaussian, Inc. access to this program.  By using this program,
 the user acknowledges that Gaussian, Inc. is engaged in the
 business of creating and licensing software in the field of
 computational chemistry and represents and warrants to the
 licensee that it is not a competitor of Gaussian, Inc. and that
 it will not use this program in any manner prohibited above.
 ---------------------------------------------------------------
  

 Cite this work as:
 Gaussian 16, Revision A.03,
 M. J. Frisch, G. W. Trucks, H. B. Schlegel, G. E. Scuseria, 
 M. A. Robb, J. R. Cheeseman, G. Scalmani, V. Barone, 
 G. A. Petersson, H. Nakatsuji, X. Li, M. Caricato, A. V. Marenich, 
 J. Bloino, B. G. Janesko, R. Gomperts, B. Mennucci, H. P. Hratchian, 
 J. V. Ortiz, A. F. Izmaylov, J. L. Sonnenberg, D. Williams-Young, 
 F. Ding, F. Lipparini, F. Egidi, J. Goings, B. Peng, A. Petrone, 
 T. Henderson, D. Ranasinghe, V. G. Zakrzewski, J. Gao, N. Rega, 
 G. Zheng, W. Liang, M. Hada, M. Ehara, K. Toyota, R. Fukuda, 
 J. Hasegawa, M. Ishida, T. Nakajima, Y. Honda, O. Kitao, H. Nakai, 
 T. Vreven, K. Throssell, J. A. Montgomery, Jr., J. E. Peralta, 
 F. Ogliaro, M. J. Bearpark, J. J. Heyd, E. N. Brothers, K. N. Kudin, 
 V. N. Staroverov, T. A. Keith, R. Kobayashi, J. Normand, 
 K. Raghavachari, A. P. Rendell, J. C. Burant, S. S. Iyengar, 
 J. Tomasi, M. Cossi, J. M. Millam, M. Klene, C. Adamo, R. Cammi, 
 J. W. Ochterski, R. L. Martin, K. Morokuma, O. Farkas, 
 J. B. Foresman, and D. J. Fox, Gaussian, Inc., Wallingford CT, 2016.
 
 ******************************************
 Gaussian 16:  ES64L-G16RevA.03 25-Dec-2016
                 6-Nov-2025 
 ******************************************
 %nprocshared=64
 Will use up to   64 processors via shared memory.
 %mem=230GB
 %chk=M100034656_sp.chk
 ----------------------------------------------
 #p M062X/DEF2TZVPP scrf=(solvent=water) em=GD3
 ----------------------------------------------
 1/38=1,172=1/1;
 2/12=2,17=6,18=5,40=1/2;
 3/5=44,7=202,11=2,25=1,30=1,70=2201,72=1,74=-55,124=31/1,2,3;
 4//1;
 5/5=2,38=5,53=1/2;
 6/7=2,8=2,9=2,10=2,28=1/1;
 99/5=1,9=1/99;
 Leave Link    1 at Thu Nov  6 19:54:58 2025, MaxMem= 30870077440 cpu:              11.7 elap:               0.2
 (Enter /public/software/gauss/g16/l101.exe)
 ---------------------------------
 Energy calculation for M100034656
 ---------------------------------
 Symbolic Z-matrix:
 Charge =  0 Multiplicity = 1
 C                     3.70038  -5.49942   0.89713 
 C                     3.57792  -4.7896   -0.46179 
 C                     3.40807  -3.29909  -0.34358 
 C                     4.46263  -2.35816  -0.26232 
 C                     5.93231  -2.61319  -0.28915 
 N                     3.94985  -1.1098   -0.13509 
 C                     2.55821  -1.20569  -0.12426 
 C                     2.20597  -2.58436  -0.25554 
 C                     0.8321   -3.17992  -0.29243 
 C                     1.76922  -0.03922   0.00551 
 C                     0.35622  -0.15034   0.01071 
 C                    -0.85778  -0.24536   0.01442 
 C                    -2.27385  -0.35729   0.02083 
 C                    -2.89156  -1.62362   0.08305 
 C                    -4.27359  -1.71836   0.09332 
 C                    -5.09012  -0.56581   0.03776 
 C                    -4.46183   0.69861  -0.02448 
 C                    -3.08105   0.80104  -0.03163 
 C                    -6.52331  -0.78905   0.05311 
 C                    -7.57878   0.07353  -0.02063 
 C                    -7.47584   1.49165  -0.14808 
 N                    -7.42441   2.65182  -0.25495 
 C                    -8.9859   -0.40567   0.01953 
 O                    -9.10078  -1.73831   0.14561 
 O                    -9.94736   0.34631  -0.0539 
 C                     2.36763   1.23599   0.13046 
 C                     1.80621   2.54205   0.27636 
 C                     0.35688   2.91506   0.33845 
 C                     2.88311   3.43528   0.35433 
 C                     2.82121   4.93321   0.48424 
 C                     2.79699   5.66266  -0.86959 
 C                     4.07032   2.67126   0.25101 
 C                     5.48213   3.15317   0.25624 
 N                     3.75722   1.35866   0.12267 
 B                     4.77104   0.1975   -0.02024 
 F                     5.61116   0.13929   1.10363 
 F                     5.55774   0.385    -1.16865 
 H                     2.80666  -5.33526   1.5084 
 H                     3.82536  -6.57924   0.76267 
 H                     4.56281  -5.12683   1.46006 
 H                     4.4677   -5.00984  -1.06214 
 H                     2.73013  -5.21144  -1.01206 
 H                     6.37758  -2.42639   0.69467 
 H                     6.14219  -3.64633  -0.56941 
 H                     6.42937  -1.94555  -0.99853 
 H                     0.28434  -2.99      0.63658 
 H                     0.23098  -2.76553  -1.1077 
 H                     0.88847  -4.26172  -0.43143 
 H                    -2.2807   -2.51835   0.12546 
 H                    -4.74251  -2.69604   0.14378 
 H                    -5.04889   1.60654  -0.06208 
 H                    -2.61029   1.7767   -0.07814 
 H                    -6.80487  -1.8342    0.13638 
 H                    -10.05072  -1.95401   0.16288 
 H                    -0.16028   2.40245   1.15541 
 H                     0.24526   3.99067   0.49118 
 H                    -0.16808   2.65234  -0.58603 
 H                     1.93307   5.21476   1.05995 
 H                     3.68157   5.28463   1.06465 
 H                     3.69148   5.43136  -1.4577 
 H                     1.92351   5.36687  -1.46027 
 H                     2.75755   6.74788  -0.72661 
 H                     6.08865   2.57067   0.95539 
 H                     5.93514   3.03863  -0.73513 
 H                     5.53227   4.20625   0.53616 
 
 ITRead=  0  0  0  0  0  0  0  0  0  0  0  0  0  0  0  0  0  0  0  0
 ITRead=  0  0  0  0  0  0  0  0  0  0  0  0  0  0  0  0  0  0  0  0
 ITRead=  0  0  0  0  0  0  0  0  0  0  0  0  0  0  0  0  0  0  0  0
 ITRead=  0  0  0  0  0
 MicOpt= -1 -1 -1 -1 -1 -1 -1 -1 -1 -1 -1 -1 -1 -1 -1 -1 -1 -1 -1 -1
 MicOpt= -1 -1 -1 -1 -1 -1 -1 -1 -1 -1 -1 -1 -1 -1 -1 -1 -1 -1 -1 -1
 MicOpt= -1 -1 -1 -1 -1 -1 -1 -1 -1 -1 -1 -1 -1 -1 -1 -1 -1 -1 -1 -1
 MicOpt= -1 -1 -1 -1 -1
 NAtoms=     65 NQM=       65 NQMF=       0 NMMI=      0 NMMIF=      0
                NMic=       0 NMicF=      0.
                    Isotopes and Nuclear Properties:
 (Nuclear quadrupole moments (NQMom) in fm**2, nuclear magnetic moments (NMagM)
  in nuclear magnetons)

  Atom         1           2           3           4           5           6           7           8           9          10
 IAtWgt=          12          12          12          12          12          14          12          12          12          12
 AtmWgt=  12.0000000  12.0000000  12.0000000  12.0000000  12.0000000  14.0030740  12.0000000  12.0000000  12.0000000  12.0000000
 NucSpn=           0           0           0           0           0           2           0           0           0           0
 AtZEff=  -0.0000000  -0.0000000  -0.0000000  -0.0000000  -0.0000000  -0.0000000  -0.0000000  -0.0000000  -0.0000000  -0.0000000
 NQMom=    0.0000000   0.0000000   0.0000000   0.0000000   0.0000000   2.0440000   0.0000000   0.0000000   0.0000000   0.0000000
 NMagM=    0.0000000   0.0000000   0.0000000   0.0000000   0.0000000   0.4037610   0.0000000   0.0000000   0.0000000   0.0000000
 AtZNuc=   6.0000000   6.0000000   6.0000000   6.0000000   6.0000000   7.0000000   6.0000000   6.0000000   6.0000000   6.0000000

  Atom        11          12          13          14          15          16          17          18          19          20
 IAtWgt=          12          12          12          12          12          12          12          12          12          12
 AtmWgt=  12.0000000  12.0000000  12.0000000  12.0000000  12.0000000  12.0000000  12.0000000  12.0000000  12.0000000  12.0000000
 NucSpn=           0           0           0           0           0           0           0           0           0           0
 AtZEff=  -0.0000000  -0.0000000  -0.0000000  -0.0000000  -0.0000000  -0.0000000  -0.0000000  -0.0000000  -0.0000000  -0.0000000
 NQMom=    0.0000000   0.0000000   0.0000000   0.0000000   0.0000000   0.0000000   0.0000000   0.0000000   0.0000000   0.0000000
 NMagM=    0.0000000   0.0000000   0.0000000   0.0000000   0.0000000   0.0000000   0.0000000   0.0000000   0.0000000   0.0000000
 AtZNuc=   6.0000000   6.0000000   6.0000000   6.0000000   6.0000000   6.0000000   6.0000000   6.0000000   6.0000000   6.0000000

  Atom        21          22          23          24          25          26          27          28          29          30
 IAtWgt=          12          14          12          16          16          12          12          12          12          12
 AtmWgt=  12.0000000  14.0030740  12.0000000  15.9949146  15.9949146  12.0000000  12.0000000  12.0000000  12.0000000  12.0000000
 NucSpn=           0           2           0           0           0           0           0           0           0           0
 AtZEff=  -0.0000000  -0.0000000  -0.0000000  -0.0000000  -0.0000000  -0.0000000  -0.0000000  -0.0000000  -0.0000000  -0.0000000
 NQMom=    0.0000000   2.0440000   0.0000000   0.0000000   0.0000000   0.0000000   0.0000000   0.0000000   0.0000000   0.0000000
 NMagM=    0.0000000   0.4037610   0.0000000   0.0000000   0.0000000   0.0000000   0.0000000   0.0000000   0.0000000   0.0000000
 AtZNuc=   6.0000000   7.0000000   6.0000000   8.0000000   8.0000000   6.0000000   6.0000000   6.0000000   6.0000000   6.0000000

  Atom        31          32          33          34          35          36          37          38          39          40
 IAtWgt=          12          12          12          14          11          19          19           1           1           1
 AtmWgt=  12.0000000  12.0000000  12.0000000  14.0030740  11.0093053  18.9984033  18.9984033   1.0078250   1.0078250   1.0078250
 NucSpn=           0           0           0           2           3           1           1           1           1           1
 AtZEff=  -0.0000000  -0.0000000  -0.0000000  -0.0000000  -0.0000000  -0.0000000  -0.0000000  -0.0000000  -0.0000000  -0.0000000
 NQMom=    0.0000000   0.0000000   0.0000000   2.0440000   4.0590000   0.0000000   0.0000000   0.0000000   0.0000000   0.0000000
 NMagM=    0.0000000   0.0000000   0.0000000   0.4037610   2.6886370   2.6288670   2.6288670   2.7928460   2.7928460   2.7928460
 AtZNuc=   6.0000000   6.0000000   6.0000000   7.0000000   5.0000000   9.0000000   9.0000000   1.0000000   1.0000000   1.0000000

  Atom        41          42          43          44          45          46          47          48          49          50
 IAtWgt=           1           1           1           1           1           1           1           1           1           1
 AtmWgt=   1.0078250   1.0078250   1.0078250   1.0078250   1.0078250   1.0078250   1.0078250   1.0078250   1.0078250   1.0078250
 NucSpn=           1           1           1           1           1           1           1           1           1           1
 AtZEff=  -0.0000000  -0.0000000  -0.0000000  -0.0000000  -0.0000000  -0.0000000  -0.0000000  -0.0000000  -0.0000000  -0.0000000
 NQMom=    0.0000000   0.0000000   0.0000000   0.0000000   0.0000000   0.0000000   0.0000000   0.0000000   0.0000000   0.0000000
 NMagM=    2.7928460   2.7928460   2.7928460   2.7928460   2.7928460   2.7928460   2.7928460   2.7928460   2.7928460   2.7928460
 AtZNuc=   1.0000000   1.0000000   1.0000000   1.0000000   1.0000000   1.0000000   1.0000000   1.0000000   1.0000000   1.0000000

  Atom        51          52          53          54          55          56          57          58          59          60
 IAtWgt=           1           1           1           1           1           1           1           1           1           1
 AtmWgt=   1.0078250   1.0078250   1.0078250   1.0078250   1.0078250   1.0078250   1.0078250   1.0078250   1.0078250   1.0078250
 NucSpn=           1           1           1           1           1           1           1           1           1           1
 AtZEff=  -0.0000000  -0.0000000  -0.0000000  -0.0000000  -0.0000000  -0.0000000  -0.0000000  -0.0000000  -0.0000000  -0.0000000
 NQMom=    0.0000000   0.0000000   0.0000000   0.0000000   0.0000000   0.0000000   0.0000000   0.0000000   0.0000000   0.0000000
 NMagM=    2.7928460   2.7928460   2.7928460   2.7928460   2.7928460   2.7928460   2.7928460   2.7928460   2.7928460   2.7928460
 AtZNuc=   1.0000000   1.0000000   1.0000000   1.0000000   1.0000000   1.0000000   1.0000000   1.0000000   1.0000000   1.0000000

  Atom        61          62          63          64          65
 IAtWgt=           1           1           1           1           1
 AtmWgt=   1.0078250   1.0078250   1.0078250   1.0078250   1.0078250
 NucSpn=           1           1           1           1           1
 AtZEff=  -0.0000000  -0.0000000  -0.0000000  -0.0000000  -0.0000000
 NQMom=    0.0000000   0.0000000   0.0000000   0.0000000   0.0000000
 NMagM=    2.7928460   2.7928460   2.7928460   2.7928460   2.7928460
 AtZNuc=   1.0000000   1.0000000   1.0000000   1.0000000   1.0000000
 Leave Link  101 at Thu Nov  6 19:54:58 2025, MaxMem= 30870077440 cpu:               4.5 elap:               0.1
 (Enter /public/software/gauss/g16/l202.exe)
 Stoichiometry    C29H28BF2N3O2
 Framework group  C1[X(C29H28BF2N3O2)]
 Deg. of freedom   189
 Full point group                 C1      NOp   1
 Largest Abelian subgroup         C1      NOp   1
 Largest concise Abelian subgroup C1      NOp   1
                         Standard orientation:                         
 ---------------------------------------------------------------------
 Center     Atomic      Atomic             Coordinates (Angstroms)
 Number     Number       Type             X           Y           Z
 ---------------------------------------------------------------------
      1          6           0       -3.700384   -5.499421   -0.897132
      2          6           0       -3.577919   -4.789600    0.461791
      3          6           0       -3.408066   -3.299089    0.343578
      4          6           0       -4.462627   -2.358163    0.262317
      5          6           0       -5.932312   -2.613193    0.289151
      6          7           0       -3.949847   -1.109797    0.135092
      7          6           0       -2.558212   -1.205690    0.124263
      8          6           0       -2.205970   -2.584359    0.255535
      9          6           0       -0.832102   -3.179922    0.292429
     10          6           0       -1.769219   -0.039218   -0.005511
     11          6           0       -0.356217   -0.150338   -0.010709
     12          6           0        0.857780   -0.245359   -0.014422
     13          6           0        2.273851   -0.357289   -0.020830
     14          6           0        2.891562   -1.623621   -0.083054
     15          6           0        4.273591   -1.718356   -0.093324
     16          6           0        5.090117   -0.565806   -0.037761
     17          6           0        4.461826    0.698606    0.024479
     18          6           0        3.081051    0.801038    0.031625
     19          6           0        6.523311   -0.789048   -0.053105
     20          6           0        7.578778    0.073525    0.020630
     21          6           0        7.475838    1.491645    0.148081
     22          7           0        7.424407    2.651819    0.254954
     23          6           0        8.985895   -0.405672   -0.019529
     24          8           0        9.100779   -1.738309   -0.145606
     25          8           0        9.947363    0.346313    0.053895
     26          6           0       -2.367633    1.235993   -0.130464
     27          6           0       -1.806208    2.542047   -0.276358
     28          6           0       -0.356884    2.915062   -0.338448
     29          6           0       -2.883114    3.435275   -0.354334
     30          6           0       -2.821210    4.933205   -0.484241
     31          6           0       -2.796987    5.662657    0.869593
     32          6           0       -4.070319    2.671260   -0.251011
     33          6           0       -5.482128    3.153170   -0.256236
     34          7           0       -3.757222    1.358656   -0.122666
     35          5           0       -4.771038    0.197502    0.020240
     36          9           0       -5.611164    0.139289   -1.103631
     37          9           0       -5.557737    0.385003    1.168655
     38          1           0       -2.806656   -5.335259   -1.508401
     39          1           0       -3.825358   -6.579238   -0.762672
     40          1           0       -4.562814   -5.126830   -1.460060
     41          1           0       -4.467696   -5.009836    1.062142
     42          1           0       -2.730130   -5.211441    1.012062
     43          1           0       -6.377575   -2.426390   -0.694666
     44          1           0       -6.142188   -3.646332    0.569407
     45          1           0       -6.429374   -1.945551    0.998533
     46          1           0       -0.284337   -2.989998   -0.636582
     47          1           0       -0.230982   -2.765530    1.107695
     48          1           0       -0.888465   -4.261716    0.431434
     49          1           0        2.280698   -2.518354   -0.125464
     50          1           0        4.742508   -2.696042   -0.143783
     51          1           0        5.048890    1.606543    0.062076
     52          1           0        2.610292    1.776702    0.078139
     53          1           0        6.804873   -1.834195   -0.136381
     54          1           0       10.050722   -1.954006   -0.162884
     55          1           0        0.160282    2.402448   -1.155413
     56          1           0       -0.245256    3.990672   -0.491179
     57          1           0        0.168079    2.652340    0.586029
     58          1           0       -1.933072    5.214759   -1.059953
     59          1           0       -3.681571    5.284631   -1.064645
     60          1           0       -3.691479    5.431363    1.457702
     61          1           0       -1.923512    5.366868    1.460266
     62          1           0       -2.757551    6.747876    0.726611
     63          1           0       -6.088646    2.570670   -0.955385
     64          1           0       -5.935141    3.038634    0.735129
     65          1           0       -5.532274    4.206254   -0.536164
 ---------------------------------------------------------------------
 Rotational constants (GHZ):           0.1558090           0.0409566           0.0328873
 Leave Link  202 at Thu Nov  6 19:54:58 2025, MaxMem= 30870077440 cpu:               0.2 elap:               0.0
 (Enter /public/software/gauss/g16/l301.exe)
 Standard basis: def2TZVPP (5D, 7F)
 Ernie: Thresh=  0.10000D-02 Tol=  0.10000D-05 Strict=F.
 There are  1752 symmetry adapted cartesian basis functions of A   symmetry.
 There are  1539 symmetry adapted basis functions of A   symmetry.
  1539 basis functions,  2363 primitive gaussians,  1752 cartesian basis functions
   131 alpha electrons      131 beta electrons
       nuclear repulsion energy      3681.1684762804 Hartrees.
 IExCor= 4336 DFT=T Ex+Corr=M062X ExCW=0 ScaHFX=  0.540000
 ScaDFX=  1.000000  1.000000  1.000000  1.000000 ScalE2=  1.000000  1.000000
 IRadAn=      5 IRanWt=     -1 IRanGd=            0 ICorTp=0 IEmpDi=131
 NAtoms=   65 NActive=   65 NUniq=   65 SFac= 1.00D+00 NAtFMM=   60 NAOKFM=T Big=T
 Integral buffers will be    131072 words long.
 Raffenetti 2 integral format.
 Two-electron integral symmetry is turned on.
 R6Disp:  Grimme-D3 Dispersion energy=       -0.0048952565 Hartrees.
 Nuclear repulsion after empirical dispersion term =     3681.1635810239 Hartrees.
 ------------------------------------------------------------------------------
 Polarizable Continuum Model (PCM)
 =================================
 Model                : PCM.
 Atomic radii         : UFF (Universal Force Field).
 Polarization charges : Total charges.
 Charge compensation  : None.
 Solution method      : On-the-fly selection.
 Cavity type          : Scaled VdW (van der Waals Surface) (Alpha=1.100).
 Cavity algorithm     : GePol (No added spheres)
                        Default sphere list used, NSphG=   65.
                        Lebedev-Laikov grids with approx.  5.0 points / Ang**2.
                        Smoothing algorithm: York/Karplus (Gamma=1.0000).
                        Polarization charges: spherical gaussians, with
                                              point-specific exponents (IZeta= 3).
                        Self-potential: point-specific (ISelfS= 7).
                        Self-field    : sphere-specific E.n sum rule (ISelfD= 2).
 Solvent              : Water, Eps=  78.355300 Eps(inf)=   1.777849
 ------------------------------------------------------------------------------
 GePol: Number of generator spheres                  =      65
 GePol: Total number of spheres                      =      65
 GePol: Number of exposed spheres                    =      65 (100.00%)
 GePol: Number of points                             =    4702
 GePol: Average weight of points                     =       0.13
 GePol: Minimum weight of points                     =   0.12D-10
 GePol: Maximum weight of points                     =    0.20577
 GePol: Number of points with low weight             =     303
 GePol: Fraction of low-weight points (<1% of avg)   =       6.44%
 GePol: Cavity surface area                          =    591.424 Ang**2
 GePol: Cavity volume                                =    682.966 Ang**3
 Leave Link  301 at Thu Nov  6 19:54:58 2025, MaxMem= 30870077440 cpu:               3.8 elap:               0.1
 (Enter /public/software/gauss/g16/l302.exe)
 NPDir=0 NMtPBC=     1 NCelOv=     1 NCel=       1 NClECP=     1 NCelD=      1
         NCelK=      1 NCelE2=     1 NClLst=     1 CellRange=     0.0.
 One-electron integrals computed using PRISM.
 One-electron integral symmetry used in STVInt
   1 Symmetry operations used in ECPInt.
 ECPInt:  NShTT=  165600 NPrTT=  466028 LenC2=  110860 LenP2D=  214919.
 LDataN:  DoStor=T MaxTD1= 6 Len=  172
 NBasis=  1539 RedAO= T EigKep=  3.95D-06  NBF=  1539
 NBsUse=  1539 1.00D-06 EigRej= -1.00D+00 NBFU=  1539
 Precomputing XC quadrature grid using
 IXCGrd= 4 IRadAn=           5 IRanWt=          -1 IRanGd=           0 AccXCQ= 0.00D+00.
 Generated NRdTot=       0 NPtTot=           0 NUsed=           0 NTot=          32
 NSgBfM=  1639  1639  1639  1639  1639 MxSgAt=    65 MxSgA2=    65.
 Leave Link  302 at Thu Nov  6 19:55:04 2025, MaxMem= 30870077440 cpu:             386.6 elap:               6.1
 (Enter /public/software/gauss/g16/l303.exe)
 DipDrv:  MaxL=1.
 Leave Link  303 at Thu Nov  6 19:55:04 2025, MaxMem= 30870077440 cpu:              20.8 elap:               0.4
 (Enter /public/software/gauss/g16/l401.exe)
 ExpMin= 6.06D-02 ExpMax= 3.55D+04 ExpMxC= 1.21D+03 IAcc=3 IRadAn=         5 AccDes= 0.00D+00
 Harris functional with IExCor= 1009 and IRadAn=       5 diagonalized for initial guess.
 HarFok:  IExCor= 1009 AccDes= 0.00D+00 IRadAn=         5 IDoV= 1 UseB2=F ITyADJ=14
 ICtDFT=  3500011 ScaDFX=  1.000000  1.000000  1.000000  1.000000
 FoFCou: FMM=F IPFlag=           0 FMFlag=      100000 FMFlg1=        2001
         NFxFlg=           0 DoJE=T BraDBF=F KetDBF=T FulRan=T
         wScrn=  0.000000 ICntrl=       500 IOpCl=  0 I1Cent=   200000004 NGrid=           0
         NMat0=    1 NMatS0=      1 NMatT0=    0 NMatD0=    1 NMtDS0=    0 NMtDT0=    0
 Petite list used in FoFCou.
 Harris En= -1660.53676441453    
 JPrj=0 DoOrth=F DoCkMO=F.
 Leave Link  401 at Thu Nov  6 19:55:12 2025, MaxMem= 30870077440 cpu:             475.5 elap:               7.5
 (Enter /public/software/gauss/g16/l502.exe)
 Integral symmetry usage will be decided dynamically.
 Closed shell SCF:
 Using DIIS extrapolation, IDIIS=  1040.
 NGot= 30870077440 LenX= 30863811491 LenY= 30860740235
 Requested convergence on RMS density matrix=1.00D-08 within 128 cycles.
 Requested convergence on MAX density matrix=1.00D-06.
 Requested convergence on             energy=1.00D-06.
 No special actions if energy rises.
 Fock matrices will be formed incrementally for  20 cycles.

 Cycle   1  Pass 1  IDiag  1:
 FoFJK:  IHMeth= 1 ICntrl=       0 DoSepK=F KAlg= 0 I1Cent=           0 FoldK=F
 IRaf= 650000000 NMat=       1 IRICut=       1 DoRegI=T DoRafI=F ISym2E= 0 IDoP0=0 IntGTp=1.
 FoFCou: FMM=T IPFlag=           0 FMFlag=      100000 FMFlg1=        2001
         NFxFlg=           0 DoJE=F BraDBF=F KetDBF=F FulRan=T
         wScrn=  0.000000 ICntrl=         0 IOpCl=  0 I1Cent=           0 NGrid=           0
         NMat0=    1 NMatS0=      1 NMatT0=    0 NMatD0=    1 NMtDS0=    0 NMtDT0=    0
 Symmetry not used in FoFCou.
 FMM levels:  10  Number of levels for PrismC:   9
 Inv3:  Mode=1 IEnd=    66326412.
 Iteration    1 A*A^-1 deviation from unit magnitude is 8.99D-15 for    804.
 Iteration    1 A*A^-1 deviation from orthogonality  is 4.55D-15 for   4524    804.
 Iteration    1 A^-1*A deviation from unit magnitude is 8.10D-15 for    804.
 Iteration    1 A^-1*A deviation from orthogonality  is 1.07D-14 for   4678   4671.
 E= -1660.45118297556    
 DIIS: error= 2.22D-02 at cycle   1 NSaved=   1.
 NSaved= 1 IEnMin= 1 EnMin= -1660.45118297556     IErMin= 1 ErrMin= 2.22D-02
 ErrMax= 2.22D-02  0.00D+00 EMaxC= 1.00D-01 BMatC= 1.17D+00 BMatP= 1.17D+00
 IDIUse=3 WtCom= 7.78D-01 WtEn= 2.22D-01
 Coeff-Com:  0.100D+01
 Coeff-En:   0.100D+01
 Coeff:      0.100D+01
 Gap=     0.146 Goal=   None    Shift=    0.000
 GapD=    0.146 DampG=1.000 DampE=0.500 DampFc=0.5000 IDamp=-1.
 Damping current iteration by 5.00D-01
 RMSDP=1.51D-03 MaxDP=1.46D-01              OVMax= 1.57D-01

 Cycle   2  Pass 1  IDiag  1:
 RMSU=  7.43D-04    CP:  9.67D-01
 E= -1660.90302306920     Delta-E=       -0.451840093637 Rises=F Damp=T
 DIIS: error= 3.87D-03 at cycle   2 NSaved=   2.
 NSaved= 2 IEnMin= 2 EnMin= -1660.90302306920     IErMin= 2 ErrMin= 3.87D-03
 ErrMax= 3.87D-03  0.00D+00 EMaxC= 1.00D-01 BMatC= 1.08D-01 BMatP= 1.17D+00
 IDIUse=3 WtCom= 9.61D-01 WtEn= 3.87D-02
 Coeff-Com: -0.111D+00 0.111D+01
 Coeff-En:   0.000D+00 0.100D+01
 Coeff:     -0.107D+00 0.111D+01
 Gap=     0.158 Goal=   None    Shift=    0.000
 RMSDP=6.99D-04 MaxDP=8.81D-02 DE=-4.52D-01 OVMax= 1.23D-01

 Cycle   3  Pass 1  IDiag  1:
 RMSU=  6.31D-04    CP:  9.38D-01  1.37D+00
 E= -1661.29705871791     Delta-E=       -0.394035648706 Rises=F Damp=F
 DIIS: error= 6.45D-03 at cycle   3 NSaved=   3.
 NSaved= 3 IEnMin= 3 EnMin= -1661.29705871791     IErMin= 2 ErrMin= 3.87D-03
 ErrMax= 6.45D-03  0.00D+00 EMaxC= 1.00D-01 BMatC= 6.21D-02 BMatP= 1.08D-01
 IDIUse=3 WtCom= 9.36D-01 WtEn= 6.45D-02
 Coeff-Com: -0.122D+00 0.515D+00 0.607D+00
 Coeff-En:   0.000D+00 0.000D+00 0.100D+01
 Coeff:     -0.114D+00 0.482D+00 0.632D+00
 Gap=     0.144 Goal=   None    Shift=    0.000
 RMSDP=2.03D-04 MaxDP=2.37D-02 DE=-3.94D-01 OVMax= 5.43D-02

 Cycle   4  Pass 1  IDiag  1:
 RMSU=  1.92D-04    CP:  9.38D-01  1.43D+00  9.18D-01
 E= -1661.33662802675     Delta-E=       -0.039569308840 Rises=F Damp=F
 DIIS: error= 3.35D-03 at cycle   4 NSaved=   4.
 NSaved= 4 IEnMin= 4 EnMin= -1661.33662802675     IErMin= 4 ErrMin= 3.35D-03
 ErrMax= 3.35D-03  0.00D+00 EMaxC= 1.00D-01 BMatC= 1.43D-02 BMatP= 6.21D-02
 IDIUse=3 WtCom= 9.67D-01 WtEn= 3.35D-02
 Coeff-Com: -0.440D-01 0.124D+00 0.360D+00 0.560D+00
 Coeff-En:   0.000D+00 0.000D+00 0.193D+00 0.807D+00
 Coeff:     -0.425D-01 0.120D+00 0.354D+00 0.568D+00
 Gap=     0.144 Goal=   None    Shift=    0.000
 RMSDP=7.87D-05 MaxDP=1.20D-02 DE=-3.96D-02 OVMax= 1.93D-02

 Cycle   5  Pass 1  IDiag  1:
 RMSU=  5.57D-05    CP:  9.37D-01  1.41D+00  9.56D-01  7.48D-01
 E= -1661.34793892504     Delta-E=       -0.011310898289 Rises=F Damp=F
 DIIS: error= 7.12D-04 at cycle   5 NSaved=   5.
 NSaved= 5 IEnMin= 5 EnMin= -1661.34793892504     IErMin= 5 ErrMin= 7.12D-04
 ErrMax= 7.12D-04  0.00D+00 EMaxC= 1.00D-01 BMatC= 7.42D-04 BMatP= 1.43D-02
 IDIUse=3 WtCom= 9.93D-01 WtEn= 7.12D-03
 Coeff-Com: -0.138D-01 0.292D-01 0.144D+00 0.291D+00 0.549D+00
 Coeff-En:   0.000D+00 0.000D+00 0.000D+00 0.000D+00 0.100D+01
 Coeff:     -0.137D-01 0.290D-01 0.143D+00 0.289D+00 0.552D+00
 Gap=     0.144 Goal=   None    Shift=    0.000
 RMSDP=2.36D-05 MaxDP=3.43D-03 DE=-1.13D-02 OVMax= 5.62D-03

 Cycle   6  Pass 1  IDiag  1:
 RMSU=  1.92D-05    CP:  9.37D-01  1.42D+00  9.53D-01  7.50D-01  7.63D-01
 E= -1661.34851534226     Delta-E=       -0.000576417224 Rises=F Damp=F
 DIIS: error= 2.44D-04 at cycle   6 NSaved=   6.
 NSaved= 6 IEnMin= 6 EnMin= -1661.34851534226     IErMin= 6 ErrMin= 2.44D-04
 ErrMax= 2.44D-04  0.00D+00 EMaxC= 1.00D-01 BMatC= 5.87D-05 BMatP= 7.42D-04
 IDIUse=3 WtCom= 9.98D-01 WtEn= 2.44D-03
 Coeff-Com: -0.277D-02 0.359D-02 0.391D-01 0.903D-01 0.273D+00 0.597D+00
 Coeff-En:   0.000D+00 0.000D+00 0.000D+00 0.000D+00 0.000D+00 0.100D+01
 Coeff:     -0.277D-02 0.358D-02 0.390D-01 0.901D-01 0.272D+00 0.598D+00
 Gap=     0.144 Goal=   None    Shift=    0.000
 RMSDP=6.66D-06 MaxDP=7.92D-04 DE=-5.76D-04 OVMax= 1.50D-03

 Cycle   7  Pass 1  IDiag  1:
 RMSU=  6.08D-06    CP:  9.37D-01  1.42D+00  9.54D-01  7.45D-01  8.04D-01
                    CP:  9.58D-01
 E= -1661.34856441873     Delta-E=       -0.000049076470 Rises=F Damp=F
 DIIS: error= 4.22D-05 at cycle   7 NSaved=   7.
 NSaved= 7 IEnMin= 7 EnMin= -1661.34856441873     IErMin= 7 ErrMin= 4.22D-05
 ErrMax= 4.22D-05  0.00D+00 EMaxC= 1.00D-01 BMatC= 6.74D-06 BMatP= 5.87D-05
 IDIUse=1 WtCom= 1.00D+00 WtEn= 0.00D+00
 Coeff-Com:  0.875D-03-0.273D-02-0.520D-02-0.720D-02 0.355D-01 0.276D+00
 Coeff-Com:  0.703D+00
 Coeff:      0.875D-03-0.273D-02-0.520D-02-0.720D-02 0.355D-01 0.276D+00
 Coeff:      0.703D+00
 Gap=     0.144 Goal=   None    Shift=    0.000
 RMSDP=3.76D-06 MaxDP=4.59D-04 DE=-4.91D-05 OVMax= 7.23D-04

 Cycle   8  Pass 1  IDiag  1:
 RMSU=  3.20D-06    CP:  9.37D-01  1.42D+00  9.55D-01  7.47D-01  8.16D-01
                    CP:  1.03D+00  1.12D+00
 E= -1661.34857093641     Delta-E=       -0.000006517685 Rises=F Damp=F
 DIIS: error= 2.03D-05 at cycle   8 NSaved=   8.
 NSaved= 8 IEnMin= 8 EnMin= -1661.34857093641     IErMin= 8 ErrMin= 2.03D-05
 ErrMax= 2.03D-05  0.00D+00 EMaxC= 1.00D-01 BMatC= 6.16D-07 BMatP= 6.74D-06
 IDIUse=1 WtCom= 1.00D+00 WtEn= 0.00D+00
 Coeff-Com:  0.729D-03-0.163D-02-0.719D-02-0.155D-01-0.211D-01 0.378D-01
 Coeff-Com:  0.272D+00 0.735D+00
 Coeff:      0.729D-03-0.163D-02-0.719D-02-0.155D-01-0.211D-01 0.378D-01
 Coeff:      0.272D+00 0.735D+00
 Gap=     0.144 Goal=   None    Shift=    0.000
 RMSDP=1.21D-06 MaxDP=1.99D-04 DE=-6.52D-06 OVMax= 3.65D-04

 Cycle   9  Pass 1  IDiag  1:
 RMSU=  8.30D-07    CP:  9.37D-01  1.42D+00  9.56D-01  7.47D-01  8.22D-01
                    CP:  1.05D+00  1.21D+00  1.08D+00
 E= -1661.34857167582     Delta-E=       -0.000000739405 Rises=F Damp=F
 DIIS: error= 7.49D-06 at cycle   9 NSaved=   9.
 NSaved= 9 IEnMin= 9 EnMin= -1661.34857167582     IErMin= 9 ErrMin= 7.49D-06
 ErrMax= 7.49D-06  0.00D+00 EMaxC= 1.00D-01 BMatC= 9.22D-08 BMatP= 6.16D-07
 IDIUse=1 WtCom= 1.00D+00 WtEn= 0.00D+00
 Coeff-Com:  0.195D-03-0.371D-03-0.224D-02-0.567D-02-0.124D-01-0.123D-01
 Coeff-Com:  0.293D-01 0.304D+00 0.700D+00
 Coeff:      0.195D-03-0.371D-03-0.224D-02-0.567D-02-0.124D-01-0.123D-01
 Coeff:      0.293D-01 0.304D+00 0.700D+00
 Gap=     0.144 Goal=   None    Shift=    0.000
 RMSDP=4.63D-07 MaxDP=1.17D-04 DE=-7.39D-07 OVMax= 1.21D-04

 Cycle  10  Pass 1  IDiag  1:
 RMSU=  3.20D-07    CP:  9.37D-01  1.42D+00  9.56D-01  7.46D-01  8.22D-01
                    CP:  1.06D+00  1.23D+00  1.15D+00  1.10D+00
 E= -1661.34857177410     Delta-E=       -0.000000098286 Rises=F Damp=F
 DIIS: error= 4.17D-06 at cycle  10 NSaved=  10.
 NSaved=10 IEnMin=10 EnMin= -1661.34857177410     IErMin=10 ErrMin= 4.17D-06
 ErrMax= 4.17D-06  0.00D+00 EMaxC= 1.00D-01 BMatC= 1.81D-08 BMatP= 9.22D-08
 IDIUse=1 WtCom= 1.00D+00 WtEn= 0.00D+00
 Coeff-Com: -0.336D-05 0.393D-04-0.127D-03-0.822D-03-0.344D-02-0.104D-01
 Coeff-Com: -0.233D-01 0.556D-01 0.345D+00 0.637D+00
 Coeff:     -0.336D-05 0.393D-04-0.127D-03-0.822D-03-0.344D-02-0.104D-01
 Coeff:     -0.233D-01 0.556D-01 0.345D+00 0.637D+00
 Gap=     0.144 Goal=   None    Shift=    0.000
 RMSDP=1.81D-07 MaxDP=3.50D-05 DE=-9.83D-08 OVMax= 5.60D-05

 Cycle  11  Pass 1  IDiag  1:
 RMSU=  1.44D-07    CP:  9.37D-01  1.42D+00  9.56D-01  7.46D-01  8.22D-01
                    CP:  1.06D+00  1.24D+00  1.17D+00  1.16D+00  1.01D+00
 E= -1661.34857179251     Delta-E=       -0.000000018405 Rises=F Damp=F
 DIIS: error= 1.85D-06 at cycle  11 NSaved=  11.
 NSaved=11 IEnMin=11 EnMin= -1661.34857179251     IErMin=11 ErrMin= 1.85D-06
 ErrMax= 1.85D-06  0.00D+00 EMaxC= 1.00D-01 BMatC= 3.76D-09 BMatP= 1.81D-08
 IDIUse=1 WtCom= 1.00D+00 WtEn= 0.00D+00
 Coeff-Com: -0.400D-04 0.945D-04 0.379D-03 0.659D-03 0.530D-03-0.290D-02
 Coeff-Com: -0.187D-01-0.288D-01 0.419D-01 0.348D+00 0.659D+00
 Coeff:     -0.400D-04 0.945D-04 0.379D-03 0.659D-03 0.530D-03-0.290D-02
 Coeff:     -0.187D-01-0.288D-01 0.419D-01 0.348D+00 0.659D+00
 Gap=     0.145 Goal=   None    Shift=    0.000
 RMSDP=7.24D-08 MaxDP=1.50D-05 DE=-1.84D-08 OVMax= 2.94D-05

 Cycle  12  Pass 1  IDiag  1:
 RMSU=  4.58D-08    CP:  9.37D-01  1.42D+00  9.56D-01  7.46D-01  8.21D-01
                    CP:  1.06D+00  1.24D+00  1.18D+00  1.18D+00  1.12D+00
                    CP:  9.68D-01
 E= -1661.34857179705     Delta-E=       -0.000000004536 Rises=F Damp=F
 DIIS: error= 3.69D-07 at cycle  12 NSaved=  12.
 NSaved=12 IEnMin=12 EnMin= -1661.34857179705     IErMin=12 ErrMin= 3.69D-07
 ErrMax= 3.69D-07  0.00D+00 EMaxC= 1.00D-01 BMatC= 3.40D-10 BMatP= 3.76D-09
 IDIUse=1 WtCom= 1.00D+00 WtEn= 0.00D+00
 Coeff-Com: -0.167D-04 0.356D-04 0.181D-03 0.386D-03 0.631D-03 0.514D-04
 Coeff-Com: -0.531D-02-0.184D-01-0.275D-01 0.604D-01 0.285D+00 0.704D+00
 Coeff:     -0.167D-04 0.356D-04 0.181D-03 0.386D-03 0.631D-03 0.514D-04
 Coeff:     -0.531D-02-0.184D-01-0.275D-01 0.604D-01 0.285D+00 0.704D+00
 Gap=     0.145 Goal=   None    Shift=    0.000
 RMSDP=2.88D-08 MaxDP=5.08D-06 DE=-4.54D-09 OVMax= 1.09D-05

 Cycle  13  Pass 1  IDiag  1:
 RMSU=  1.96D-08    CP:  9.37D-01  1.42D+00  9.56D-01  7.46D-01  8.21D-01
                    CP:  1.06D+00  1.24D+00  1.18D+00  1.19D+00  1.15D+00
                    CP:  1.04D+00  1.07D+00
 E= -1661.34857179763     Delta-E=       -0.000000000588 Rises=F Damp=F
 DIIS: error= 1.24D-07 at cycle  13 NSaved=  13.
 NSaved=13 IEnMin=13 EnMin= -1661.34857179763     IErMin=13 ErrMin= 1.24D-07
 ErrMax= 1.24D-07  0.00D+00 EMaxC= 1.00D-01 BMatC= 3.28D-11 BMatP= 3.40D-10
 IDIUse=1 WtCom= 1.00D+00 WtEn= 0.00D+00
 Coeff-Com: -0.709D-06 0.588D-06 0.184D-04 0.537D-04 0.148D-03 0.392D-03
 Coeff-Com:  0.321D-03-0.286D-02-0.164D-01-0.213D-01 0.308D-01 0.259D+00
 Coeff-Com:  0.750D+00
 Coeff:     -0.709D-06 0.588D-06 0.184D-04 0.537D-04 0.148D-03 0.392D-03
 Coeff:      0.321D-03-0.286D-02-0.164D-01-0.213D-01 0.308D-01 0.259D+00
 Coeff:      0.750D+00
 Gap=     0.145 Goal=   None    Shift=    0.000
 RMSDP=1.03D-08 MaxDP=1.55D-06 DE=-5.88D-10 OVMax= 4.38D-06

 Cycle  14  Pass 1  IDiag  1:
 RMSU=  6.83D-09    CP:  9.37D-01  1.42D+00  9.56D-01  7.46D-01  8.21D-01
                    CP:  1.06D+00  1.24D+00  1.18D+00  1.19D+00  1.16D+00
                    CP:  1.07D+00  1.14D+00  1.10D+00
 E= -1661.34857179756     Delta-E=        0.000000000071 Rises=F Damp=F
 DIIS: error= 5.69D-08 at cycle  14 NSaved=  14.
 NSaved=14 IEnMin=13 EnMin= -1661.34857179763     IErMin=14 ErrMin= 5.69D-08
 ErrMax= 5.69D-08  0.00D+00 EMaxC= 1.00D-01 BMatC= 5.57D-12 BMatP= 3.28D-11
 IDIUse=1 WtCom= 1.00D+00 WtEn= 0.00D+00
 Coeff-Com:  0.172D-05-0.398D-05-0.137D-04-0.247D-04-0.134D-04 0.177D-03
 Coeff-Com:  0.809D-03 0.124D-02-0.390D-02-0.173D-01-0.226D-01 0.123D-01
 Coeff-Com:  0.314D+00 0.715D+00
 Coeff:      0.172D-05-0.398D-05-0.137D-04-0.247D-04-0.134D-04 0.177D-03
 Coeff:      0.809D-03 0.124D-02-0.390D-02-0.173D-01-0.226D-01 0.123D-01
 Coeff:      0.314D+00 0.715D+00
 Gap=     0.145 Goal=   None    Shift=    0.000
 RMSDP=4.04D-09 MaxDP=4.73D-07 DE= 7.09D-11 OVMax= 1.92D-06

 Error on total polarization charges =  0.02205
 SCF Done:  E(RM062X) =  -1661.34857180     A.U. after   14 cycles
            NFock= 14  Conv=0.40D-08     -V/T= 2.0054
 KE= 1.652352057406D+03 PE=-1.123465432548D+04 EE= 4.239790115250D+03
 Leave Link  502 at Thu Nov  6 20:05:22 2025, MaxMem= 30870077440 cpu:           38303.4 elap:             610.3
 (Enter /public/software/gauss/g16/l601.exe)
 Copying SCF densities to generalized density rwf, IOpCl= 0 IROHF=0.

 **********************************************************************

            Population analysis using the SCF density.

 **********************************************************************

 Orbital symmetries:
       Occupied  (A) (A) (A) (A) (A) (A) (A) (A) (A) (A) (A) (A)
                 (A) (A) (A) (A) (A) (A) (A) (A) (A) (A) (A) (A)
                 (A) (A) (A) (A) (A) (A) (A) (A) (A) (A) (A) (A)
                 (A) (A) (A) (A) (A) (A) (A) (A) (A) (A) (A) (A)
                 (A) (A) (A) (A) (A) (A) (A) (A) (A) (A) (A) (A)
                 (A) (A) (A) (A) (A) (A) (A) (A) (A) (A) (A) (A)
                 (A) (A) (A) (A) (A) (A) (A) (A) (A) (A) (A) (A)
                 (A) (A) (A) (A) (A) (A) (A) (A) (A) (A) (A) (A)
                 (A) (A) (A) (A) (A) (A) (A) (A) (A) (A) (A) (A)
                 (A) (A) (A) (A) (A) (A) (A) (A) (A) (A) (A) (A)
                 (A) (A) (A) (A) (A) (A) (A) (A) (A) (A) (A)
       Virtual   (A) (A) (A) (A) (A) (A) (A) (A) (A) (A) (A) (A)
                 (A) (A) (A) (A) (A) (A) (A) (A) (A) (A) (A) (A)
                 (A) (A) (A) (A) (A) (A) (A) (A) (A) (A) (A) (A)
                 (A) (A) (A) (A) (A) (A) (A) (A) (A) (A) (A) (A)
                 (A) (A) (A) (A) (A) (A) (A) (A) (A) (A) (A) (A)
                 (A) (A) (A) (A) (A) (A) (A) (A) (A) (A) (A) (A)
                 (A) (A) (A) (A) (A) (A) (A) (A) (A) (A) (A) (A)
                 (A) (A) (A) (A) (A) (A) (A) (A) (A) (A) (A) (A)
                 (A) (A) (A) (A) (A) (A) (A) (A) (A) (A) (A) (A)
                 (A) (A) (A) (A) (A) (A) (A) (A) (A) (A) (A) (A)
                 (A) (A) (A) (A) (A) (A) (A) (A) (A) (A) (A) (A)
                 (A) (A) (A) (A) (A) (A) (A) (A) (A) (A) (A) (A)
                 (A) (A) (A) (A) (A) (A) (A) (A) (A) (A) (A) (A)
                 (A) (A) (A) (A) (A) (A) (A) (A) (A) (A) (A) (A)
                 (A) (A) (A) (A) (A) (A) (A) (A) (A) (A) (A) (A)
                 (A) (A) (A) (A) (A) (A) (A) (A) (A) (A) (A) (A)
                 (A) (A) (A) (A) (A) (A) (A) (A) (A) (A) (A) (A)
                 (A) (A) (A) (A) (A) (A) (A) (A) (A) (A) (A) (A)
                 (A) (A) (A) (A) (A) (A) (A) (A) (A) (A) (A) (A)
                 (A) (A) (A) (A) (A) (A) (A) (A) (A) (A) (A) (A)
                 (A) (A) (A) (A) (A) (A) (A) (A) (A) (A) (A) (A)
                 (A) (A) (A) (A) (A) (A) (A) (A) (A) (A) (A) (A)
                 (A) (A) (A) (A) (A) (A) (A) (A) (A) (A) (A) (A)
                 (A) (A) (A) (A) (A) (A) (A) (A) (A) (A) (A) (A)
                 (A) (A) (A) (A) (A) (A) (A) (A) (A) (A) (A) (A)
                 (A) (A) (A) (A) (A) (A) (A) (A) (A) (A) (A) (A)
                 (A) (A) (A) (A) (A) (A) (A) (A) (A) (A) (A) (A)
                 (A) (A) (A) (A) (A) (A) (A) (A) (A) (A) (A) (A)
                 (A) (A) (A) (A) (A) (A) (A) (A) (A) (A) (A) (A)
                 (A) (A) (A) (A) (A) (A) (A) (A) (A) (A) (A) (A)
                 (A) (A) (A) (A) (A) (A) (A) (A) (A) (A) (A) (A)
                 (A) (A) (A) (A) (A) (A) (A) (A) (A) (A) (A) (A)
                 (A) (A) (A) (A) (A) (A) (A) (A) (A) (A) (A) (A)
                 (A) (A) (A) (A) (A) (A) (A) (A) (A) (A) (A) (A)
                 (A) (A) (A) (A) (A) (A) (A) (A) (A) (A) (A) (A)
                 (A) (A) (A) (A) (A) (A) (A) (A) (A) (A) (A) (A)
                 (A) (A) (A) (A) (A) (A) (A) (A) (A) (A) (A) (A)
                 (A) (A) (A) (A) (A) (A) (A) (A) (A) (A) (A) (A)
                 (A) (A) (A) (A) (A) (A) (A) (A) (A) (A) (A) (A)
                 (A) (A) (A) (A) (A) (A) (A) (A) (A) (A) (A) (A)
                 (A) (A) (A) (A) (A) (A) (A) (A) (A) (A) (A) (A)
                 (A) (A) (A) (A) (A) (A) (A) (A) (A) (A) (A) (A)
                 (A) (A) (A) (A) (A) (A) (A) (A) (A) (A) (A) (A)
                 (A) (A) (A) (A) (A) (A) (A) (A) (A) (A) (A) (A)
                 (A) (A) (A) (A) (A) (A) (A) (A) (A) (A) (A) (A)
                 (A) (A) (A) (A) (A) (A) (A) (A) (A) (A) (A) (A)
                 (A) (A) (A) (A) (A) (A) (A) (A) (A) (A) (A) (A)
                 (A) (A) (A) (A) (A) (A) (A) (A) (A) (A) (A) (A)
                 (A) (A) (A) (A) (A) (A) (A) (A) (A) (A) (A) (A)
                 (A) (A) (A) (A) (A) (A) (A) (A) (A) (A) (A) (A)
                 (A) (A) (A) (A) (A) (A) (A) (A) (A) (A) (A) (A)
                 (A) (A) (A) (A) (A) (A) (A) (A) (A) (A) (A) (A)
                 (A) (A) (A) (A) (A) (A) (A) (A) (A) (A) (A) (A)
                 (A) (A) (A) (A) (A) (A) (A) (A) (A) (A) (A) (A)
                 (A) (A) (A) (A) (A) (A) (A) (A) (A) (A) (A) (A)
                 (A) (A) (A) (A) (A) (A) (A) (A) (A) (A) (A) (A)
                 (A) (A) (A) (A) (A) (A) (A) (A) (A) (A) (A) (A)
                 (A) (A) (A) (A) (A) (A) (A) (A) (A) (A) (A) (A)
                 (A) (A) (A) (A) (A) (A) (A) (A) (A) (A) (A) (A)
                 (A) (A) (A) (A) (A) (A) (A) (A) (A) (A) (A) (A)
                 (A) (A) (A) (A) (A) (A) (A) (A) (A) (A) (A) (A)
                 (A) (A) (A) (A) (A) (A) (A) (A) (A) (A) (A) (A)
                 (A) (A) (A) (A) (A) (A) (A) (A) (A) (A) (A) (A)
                 (A) (A) (A) (A) (A) (A) (A) (A) (A) (A) (A) (A)
                 (A) (A) (A) (A) (A) (A) (A) (A) (A) (A) (A) (A)
                 (A) (A) (A) (A) (A) (A) (A) (A) (A) (A) (A) (A)
                 (A) (A) (A) (A) (A) (A) (A) (A) (A) (A) (A) (A)
                 (A) (A) (A) (A) (A) (A) (A) (A) (A) (A) (A) (A)
                 (A) (A) (A) (A) (A) (A) (A) (A) (A) (A) (A) (A)
                 (A) (A) (A) (A) (A) (A) (A) (A) (A) (A) (A) (A)
                 (A) (A) (A) (A) (A) (A) (A) (A) (A) (A) (A) (A)
                 (A) (A) (A) (A) (A) (A) (A) (A) (A) (A) (A) (A)
                 (A) (A) (A) (A) (A) (A) (A) (A) (A) (A) (A) (A)
                 (A) (A) (A) (A) (A) (A) (A) (A) (A) (A) (A) (A)
                 (A) (A) (A) (A) (A) (A) (A) (A) (A) (A) (A) (A)
                 (A) (A) (A) (A) (A) (A) (A) (A) (A) (A) (A) (A)
                 (A) (A) (A) (A) (A) (A) (A) (A) (A) (A) (A) (A)
                 (A) (A) (A) (A) (A) (A) (A) (A) (A) (A) (A) (A)
                 (A) (A) (A) (A) (A) (A) (A) (A) (A) (A) (A) (A)
                 (A) (A) (A) (A) (A) (A) (A) (A) (A) (A) (A) (A)
                 (A) (A) (A) (A) (A) (A) (A) (A) (A) (A) (A) (A)
                 (A) (A) (A) (A) (A) (A) (A) (A) (A) (A) (A) (A)
                 (A) (A) (A) (A) (A) (A) (A) (A) (A) (A) (A) (A)
                 (A) (A) (A) (A) (A) (A) (A) (A) (A) (A) (A) (A)
                 (A) (A) (A) (A) (A) (A) (A) (A) (A) (A) (A) (A)
                 (A) (A) (A) (A) (A) (A) (A) (A) (A) (A) (A) (A)
                 (A) (A) (A) (A) (A) (A) (A) (A) (A) (A) (A) (A)
                 (A) (A) (A) (A) (A) (A) (A) (A) (A) (A) (A) (A)
                 (A) (A) (A) (A) (A) (A) (A) (A) (A) (A) (A) (A)
                 (A) (A) (A) (A) (A) (A) (A) (A) (A) (A) (A) (A)
                 (A) (A) (A) (A) (A) (A) (A) (A) (A) (A) (A) (A)
                 (A) (A) (A) (A) (A) (A) (A) (A) (A) (A) (A) (A)
                 (A) (A) (A) (A) (A) (A) (A) (A) (A) (A) (A) (A)
                 (A) (A) (A) (A) (A) (A) (A) (A) (A) (A) (A) (A)
                 (A) (A) (A) (A) (A) (A) (A) (A) (A) (A) (A) (A)
                 (A) (A) (A) (A) (A) (A) (A) (A) (A) (A) (A) (A)
                 (A) (A) (A) (A) (A) (A) (A) (A) (A) (A) (A) (A)
                 (A) (A) (A) (A) (A) (A) (A) (A) (A) (A) (A) (A)
                 (A) (A) (A) (A) (A) (A) (A) (A) (A) (A) (A) (A)
                 (A) (A) (A) (A) (A) (A) (A) (A) (A) (A) (A) (A)
                 (A) (A) (A) (A) (A) (A) (A) (A) (A) (A) (A) (A)
                 (A) (A) (A) (A) (A) (A) (A) (A) (A) (A) (A) (A)
                 (A) (A) (A) (A) (A) (A) (A) (A) (A) (A) (A) (A)
                 (A) (A) (A) (A) (A) (A) (A) (A) (A) (A) (A) (A)
                 (A) (A) (A) (A) (A) (A) (A) (A) (A) (A) (A) (A)
                 (A) (A) (A) (A) (A) (A) (A) (A) (A) (A) (A) (A)
                 (A) (A) (A) (A) (A) (A) (A) (A) (A) (A) (A) (A)
                 (A) (A) (A) (A) (A) (A) (A) (A) (A) (A) (A) (A)
                 (A) (A) (A) (A) (A) (A) (A) (A) (A) (A) (A) (A)
                 (A) (A) (A) (A) (A) (A) (A) (A) (A) (A) (A) (A)
                 (A) (A) (A) (A) (A) (A) (A) (A) (A) (A) (A) (A)
                 (A) (A) (A) (A) (A) (A) (A) (A) (A) (A) (A) (A)
                 (A) (A) (A) (A) (A) (A) (A) (A) (A) (A) (A) (A)
                 (A) (A) (A) (A) (A) (A) (A) (A) (A) (A) (A) (A)
                 (A) (A) (A) (A) (A) (A) (A) (A) (A) (A) (A) (A)
                 (A) (A) (A) (A) (A) (A) (A) (A) (A) (A) (A) (A)
                 (A) (A) (A) (A) (A) (A) (A) (A) (A) (A) (A) (A)
                 (A) (A) (A) (A)
 The electronic state is 1-A.
 Alpha  occ. eigenvalues --  -25.20252 -25.20245 -19.69235 -19.64038 -14.78074
 Alpha  occ. eigenvalues --  -14.78072 -14.77810 -10.70915 -10.61912 -10.61314
 Alpha  occ. eigenvalues --  -10.61097 -10.60667 -10.60106 -10.59864 -10.59861
 Alpha  occ. eigenvalues --  -10.58965 -10.58934 -10.58932 -10.57774 -10.57609
 Alpha  occ. eigenvalues --  -10.57523 -10.57440 -10.57432 -10.57398 -10.56588
 Alpha  occ. eigenvalues --  -10.56586 -10.54472 -10.54470 -10.54306 -10.54301
 Alpha  occ. eigenvalues --  -10.54229 -10.54221 -10.54008 -10.54003 -10.52822
 Alpha  occ. eigenvalues --  -10.52815  -7.12932  -1.32122  -1.28894  -1.25447
 Alpha  occ. eigenvalues --   -1.15813  -1.10562  -1.08630  -1.03690  -1.00215
 Alpha  occ. eigenvalues --   -0.95852  -0.94917  -0.92459  -0.91504  -0.90522
 Alpha  occ. eigenvalues --   -0.88414  -0.87481  -0.86691  -0.85344  -0.84130
 Alpha  occ. eigenvalues --   -0.83373  -0.80423  -0.79802  -0.78855  -0.76754
 Alpha  occ. eigenvalues --   -0.74885  -0.73332  -0.72563  -0.71890  -0.71105
 Alpha  occ. eigenvalues --   -0.70213  -0.66916  -0.64717  -0.64564  -0.63668
 Alpha  occ. eigenvalues --   -0.62374  -0.62180  -0.60684  -0.60072  -0.59068
 Alpha  occ. eigenvalues --   -0.58884  -0.58183  -0.56925  -0.56821  -0.56259
 Alpha  occ. eigenvalues --   -0.56131  -0.53668  -0.53452  -0.53425  -0.53165
 Alpha  occ. eigenvalues --   -0.51919  -0.51612  -0.51447  -0.50780  -0.50191
 Alpha  occ. eigenvalues --   -0.50086  -0.49784  -0.49454  -0.49291  -0.49116
 Alpha  occ. eigenvalues --   -0.48752  -0.48490  -0.47655  -0.47409  -0.47323
 Alpha  occ. eigenvalues --   -0.47212  -0.46965  -0.46550  -0.46370  -0.46100
 Alpha  occ. eigenvalues --   -0.46048  -0.46030  -0.45025  -0.44389  -0.44194
 Alpha  occ. eigenvalues --   -0.44150  -0.43688  -0.43586  -0.42712  -0.42367
 Alpha  occ. eigenvalues --   -0.41750  -0.41588  -0.41293  -0.41125  -0.40313
 Alpha  occ. eigenvalues --   -0.40015  -0.39308  -0.38675  -0.38641  -0.35293
 Alpha  occ. eigenvalues --   -0.34050  -0.33843  -0.30753  -0.29941  -0.29133
 Alpha  occ. eigenvalues --   -0.25134
 Alpha virt. eigenvalues --   -0.10684  -0.07215  -0.00577   0.00978   0.04036
 Alpha virt. eigenvalues --    0.04256   0.04861   0.05166   0.05178   0.05827
 Alpha virt. eigenvalues --    0.06942   0.07320   0.07434   0.08251   0.08806
 Alpha virt. eigenvalues --    0.08892   0.08993   0.09775   0.10058   0.10612
 Alpha virt. eigenvalues --    0.10894   0.11250   0.11288   0.11464   0.12087
 Alpha virt. eigenvalues --    0.12372   0.12506   0.12896   0.13034   0.13121
 Alpha virt. eigenvalues --    0.14065   0.14289   0.14742   0.14816   0.15463
 Alpha virt. eigenvalues --    0.15920   0.15995   0.16475   0.16579   0.16862
 Alpha virt. eigenvalues --    0.17144   0.17281   0.17939   0.18060   0.18237
 Alpha virt. eigenvalues --    0.18495   0.18562   0.19057   0.19167   0.19403
 Alpha virt. eigenvalues --    0.19562   0.20424   0.20536   0.20791   0.20993
 Alpha virt. eigenvalues --    0.21572   0.21762   0.22017   0.22599   0.22769
 Alpha virt. eigenvalues --    0.23125   0.23270   0.23511   0.23628   0.23733
 Alpha virt. eigenvalues --    0.24064   0.24160   0.24497   0.24786   0.25164
 Alpha virt. eigenvalues --    0.25321   0.25347   0.25855   0.25902   0.26308
 Alpha virt. eigenvalues --    0.26594   0.26901   0.27234   0.27834   0.28077
 Alpha virt. eigenvalues --    0.28352   0.28987   0.29325   0.29619   0.30121
 Alpha virt. eigenvalues --    0.30242   0.30379   0.30511   0.30819   0.30962
 Alpha virt. eigenvalues --    0.31590   0.31740   0.31934   0.32537   0.32813
 Alpha virt. eigenvalues --    0.33044   0.33392   0.33657   0.33679   0.34384
 Alpha virt. eigenvalues --    0.34586   0.34759   0.34891   0.35253   0.35501
 Alpha virt. eigenvalues --    0.35824   0.36052   0.36767   0.37124   0.37427
 Alpha virt. eigenvalues --    0.37565   0.37722   0.38011   0.38285   0.38406
 Alpha virt. eigenvalues --    0.38654   0.38975   0.39197   0.39705   0.39897
 Alpha virt. eigenvalues --    0.40182   0.40395   0.40558   0.41009   0.41371
 Alpha virt. eigenvalues --    0.41507   0.41743   0.42047   0.42284   0.42953
 Alpha virt. eigenvalues --    0.43035   0.43155   0.43540   0.44002   0.44109
 Alpha virt. eigenvalues --    0.44527   0.44969   0.45141   0.45328   0.45410
 Alpha virt. eigenvalues --    0.45660   0.45917   0.46165   0.46458   0.46728
 Alpha virt. eigenvalues --    0.46785   0.47039   0.47396   0.47608   0.47811
 Alpha virt. eigenvalues --    0.48082   0.48308   0.48669   0.48875   0.49296
 Alpha virt. eigenvalues --    0.49552   0.49590   0.49764   0.49845   0.50329
 Alpha virt. eigenvalues --    0.50534   0.50864   0.50977   0.51237   0.51333
 Alpha virt. eigenvalues --    0.51649   0.51900   0.52084   0.52445   0.53259
 Alpha virt. eigenvalues --    0.53280   0.53495   0.53681   0.53977   0.54215
 Alpha virt. eigenvalues --    0.54346   0.54873   0.54946   0.55342   0.55422
 Alpha virt. eigenvalues --    0.55682   0.56027   0.56380   0.57400   0.57475
 Alpha virt. eigenvalues --    0.58169   0.58581   0.58969   0.59081   0.59362
 Alpha virt. eigenvalues --    0.59925   0.60164   0.60286   0.60608   0.60854
 Alpha virt. eigenvalues --    0.60972   0.61187   0.61994   0.62271   0.62563
 Alpha virt. eigenvalues --    0.62911   0.63036   0.63186   0.63576   0.63853
 Alpha virt. eigenvalues --    0.64092   0.64148   0.64585   0.65011   0.65340
 Alpha virt. eigenvalues --    0.65581   0.65843   0.66322   0.66673   0.67105
 Alpha virt. eigenvalues --    0.67296   0.67475   0.67560   0.68224   0.68294
 Alpha virt. eigenvalues --    0.68699   0.68916   0.69391   0.69573   0.69820
 Alpha virt. eigenvalues --    0.70057   0.70520   0.70843   0.70933   0.71258
 Alpha virt. eigenvalues --    0.71893   0.72278   0.73021   0.73332   0.73456
 Alpha virt. eigenvalues --    0.73732   0.74117   0.74262   0.74615   0.74928
 Alpha virt. eigenvalues --    0.75592   0.75753   0.76013   0.76687   0.76930
 Alpha virt. eigenvalues --    0.77585   0.77841   0.78235   0.78406   0.78664
 Alpha virt. eigenvalues --    0.79264   0.79561   0.79770   0.79985   0.80487
 Alpha virt. eigenvalues --    0.81258   0.81698   0.82400   0.82519   0.83183
 Alpha virt. eigenvalues --    0.83291   0.83949   0.84053   0.84685   0.84789
 Alpha virt. eigenvalues --    0.85374   0.85573   0.85919   0.86166   0.86475
 Alpha virt. eigenvalues --    0.86952   0.87179   0.87570   0.87911   0.88329
 Alpha virt. eigenvalues --    0.88707   0.88823   0.89315   0.89619   0.89839
 Alpha virt. eigenvalues --    0.90013   0.90242   0.90836   0.91203   0.91743
 Alpha virt. eigenvalues --    0.92226   0.92348   0.92832   0.93272   0.93741
 Alpha virt. eigenvalues --    0.94118   0.94166   0.94618   0.95095   0.95481
 Alpha virt. eigenvalues --    0.95681   0.96395   0.96946   0.97266   0.97760
 Alpha virt. eigenvalues --    0.98344   0.98391   0.98879   0.99126   0.99540
 Alpha virt. eigenvalues --    0.99661   0.99854   1.00424   1.00726   1.00958
 Alpha virt. eigenvalues --    1.01102   1.01644   1.01884   1.02243   1.02398
 Alpha virt. eigenvalues --    1.02667   1.03076   1.03570   1.04099   1.04290
 Alpha virt. eigenvalues --    1.04369   1.04522   1.04973   1.05643   1.05790
 Alpha virt. eigenvalues --    1.05910   1.06014   1.06822   1.07414   1.07609
 Alpha virt. eigenvalues --    1.07853   1.08000   1.08688   1.08819   1.09338
 Alpha virt. eigenvalues --    1.09699   1.09861   1.09908   1.10291   1.10675
 Alpha virt. eigenvalues --    1.11089   1.11528   1.11875   1.12329   1.12536
 Alpha virt. eigenvalues --    1.12975   1.13369   1.13512   1.13996   1.14139
 Alpha virt. eigenvalues --    1.14211   1.15165   1.15456   1.15655   1.16109
 Alpha virt. eigenvalues --    1.16802   1.17515   1.17964   1.18392   1.19112
 Alpha virt. eigenvalues --    1.19372   1.19981   1.20297   1.20778   1.20945
 Alpha virt. eigenvalues --    1.21301   1.21552   1.21948   1.22097   1.22292
 Alpha virt. eigenvalues --    1.22828   1.23357   1.23515   1.24066   1.24871
 Alpha virt. eigenvalues --    1.25599   1.26113   1.26505   1.26665   1.27203
 Alpha virt. eigenvalues --    1.27402   1.27973   1.28278   1.28384   1.28503
 Alpha virt. eigenvalues --    1.28723   1.29625   1.30140   1.30804   1.31089
 Alpha virt. eigenvalues --    1.31785   1.31945   1.32127   1.32408   1.32996
 Alpha virt. eigenvalues --    1.33307   1.33765   1.34074   1.34403   1.34754
 Alpha virt. eigenvalues --    1.35404   1.35501   1.36143   1.36292   1.36816
 Alpha virt. eigenvalues --    1.37460   1.37688   1.38179   1.38568   1.39317
 Alpha virt. eigenvalues --    1.39446   1.39779   1.40073   1.40544   1.40659
 Alpha virt. eigenvalues --    1.40870   1.41143   1.41494   1.42748   1.43259
 Alpha virt. eigenvalues --    1.43429   1.43719   1.43929   1.44663   1.44926
 Alpha virt. eigenvalues --    1.45103   1.45432   1.45621   1.45827   1.46282
 Alpha virt. eigenvalues --    1.46550   1.46925   1.47477   1.47796   1.48281
 Alpha virt. eigenvalues --    1.48393   1.48692   1.49001   1.49072   1.49810
 Alpha virt. eigenvalues --    1.50027   1.50113   1.50333   1.51175   1.51231
 Alpha virt. eigenvalues --    1.51395   1.51676   1.51819   1.52498   1.52610
 Alpha virt. eigenvalues --    1.53105   1.53695   1.53891   1.53982   1.54106
 Alpha virt. eigenvalues --    1.54269   1.54616   1.55199   1.55399   1.55566
 Alpha virt. eigenvalues --    1.56076   1.56356   1.56449   1.56814   1.57348
 Alpha virt. eigenvalues --    1.57667   1.58096   1.58176   1.58631   1.59169
 Alpha virt. eigenvalues --    1.59677   1.59898   1.60228   1.60370   1.60773
 Alpha virt. eigenvalues --    1.60868   1.61510   1.61611   1.62011   1.62190
 Alpha virt. eigenvalues --    1.62397   1.62916   1.63316   1.63538   1.63809
 Alpha virt. eigenvalues --    1.64081   1.64549   1.65208   1.65511   1.66162
 Alpha virt. eigenvalues --    1.67180   1.67774   1.68120   1.68472   1.68538
 Alpha virt. eigenvalues --    1.69349   1.69438   1.70056   1.71041   1.71093
 Alpha virt. eigenvalues --    1.71163   1.71344   1.72132   1.73061   1.73473
 Alpha virt. eigenvalues --    1.73767   1.74576   1.74736   1.75062   1.75315
 Alpha virt. eigenvalues --    1.77235   1.77637   1.78548   1.78890   1.79442
 Alpha virt. eigenvalues --    1.79688   1.80805   1.81498   1.81677   1.82556
 Alpha virt. eigenvalues --    1.82854   1.83495   1.83747   1.84205   1.84714
 Alpha virt. eigenvalues --    1.84967   1.85932   1.86366   1.86935   1.87391
 Alpha virt. eigenvalues --    1.88427   1.89719   1.89824   1.91437   1.91721
 Alpha virt. eigenvalues --    1.91927   1.92601   1.92682   1.93136   1.93379
 Alpha virt. eigenvalues --    1.94513   1.95235   1.95718   1.96862   1.96958
 Alpha virt. eigenvalues --    1.97392   1.99192   2.00066   2.00387   2.00587
 Alpha virt. eigenvalues --    2.01167   2.01508   2.01619   2.01949   2.02320
 Alpha virt. eigenvalues --    2.03763   2.04236   2.05086   2.05596   2.05988
 Alpha virt. eigenvalues --    2.06692   2.07241   2.07992   2.08245   2.08380
 Alpha virt. eigenvalues --    2.08929   2.09101   2.09743   2.09964   2.10080
 Alpha virt. eigenvalues --    2.11577   2.11788   2.12412   2.12711   2.13871
 Alpha virt. eigenvalues --    2.14067   2.14559   2.14800   2.15632   2.15864
 Alpha virt. eigenvalues --    2.16449   2.18285   2.18640   2.19811   2.20946
 Alpha virt. eigenvalues --    2.21350   2.22346   2.22514   2.23158   2.24581
 Alpha virt. eigenvalues --    2.24806   2.25533   2.26392   2.26482   2.28292
 Alpha virt. eigenvalues --    2.29036   2.29110   2.29980   2.30590   2.30974
 Alpha virt. eigenvalues --    2.31336   2.32290   2.33393   2.33662   2.34094
 Alpha virt. eigenvalues --    2.34370   2.34635   2.35317   2.37117   2.37472
 Alpha virt. eigenvalues --    2.38809   2.39107   2.39433   2.39742   2.39799
 Alpha virt. eigenvalues --    2.40407   2.41306   2.42299   2.42478   2.43007
 Alpha virt. eigenvalues --    2.43343   2.44485   2.47298   2.47355   2.48025
 Alpha virt. eigenvalues --    2.48223   2.48670   2.48878   2.49505   2.49862
 Alpha virt. eigenvalues --    2.50224   2.50676   2.51035   2.51357   2.51763
 Alpha virt. eigenvalues --    2.52129   2.52401   2.52621   2.54186   2.54452
 Alpha virt. eigenvalues --    2.54891   2.55189   2.55895   2.56244   2.57009
 Alpha virt. eigenvalues --    2.57213   2.58267   2.58699   2.59451   2.59748
 Alpha virt. eigenvalues --    2.59900   2.60066   2.60101   2.60208   2.60614
 Alpha virt. eigenvalues --    2.61800   2.62017   2.62273   2.63665   2.64549
 Alpha virt. eigenvalues --    2.64842   2.65260   2.65833   2.66228   2.66695
 Alpha virt. eigenvalues --    2.67404   2.67769   2.68745   2.69256   2.69516
 Alpha virt. eigenvalues --    2.69630   2.70874   2.71590   2.71723   2.71995
 Alpha virt. eigenvalues --    2.72332   2.72760   2.72997   2.73264   2.73359
 Alpha virt. eigenvalues --    2.73864   2.74294   2.74810   2.75524   2.75909
 Alpha virt. eigenvalues --    2.76228   2.76650   2.77024   2.77692   2.78558
 Alpha virt. eigenvalues --    2.79021   2.79642   2.80282   2.80477   2.80905
 Alpha virt. eigenvalues --    2.81316   2.81602   2.81977   2.82247   2.82649
 Alpha virt. eigenvalues --    2.83009   2.83732   2.83857   2.84127   2.84532
 Alpha virt. eigenvalues --    2.84836   2.85116   2.85715   2.85986   2.86135
 Alpha virt. eigenvalues --    2.86564   2.86636   2.86954   2.87377   2.87566
 Alpha virt. eigenvalues --    2.88017   2.88198   2.88422   2.88753   2.89129
 Alpha virt. eigenvalues --    2.89315   2.89793   2.89998   2.90033   2.90728
 Alpha virt. eigenvalues --    2.91011   2.91284   2.91436   2.92115   2.92283
 Alpha virt. eigenvalues --    2.92756   2.92962   2.93420   2.93804   2.93996
 Alpha virt. eigenvalues --    2.94418   2.94853   2.95565   2.95594   2.96114
 Alpha virt. eigenvalues --    2.96217   2.96281   2.96442   2.96744   2.96869
 Alpha virt. eigenvalues --    2.97489   2.97643   2.98436   2.98621   2.98931
 Alpha virt. eigenvalues --    2.99206   2.99355   2.99806   3.00074   3.00477
 Alpha virt. eigenvalues --    3.00524   3.00992   3.01306   3.01748   3.01946
 Alpha virt. eigenvalues --    3.02338   3.02390   3.02661   3.03258   3.03439
 Alpha virt. eigenvalues --    3.03678   3.04259   3.04711   3.04957   3.05082
 Alpha virt. eigenvalues --    3.05785   3.06184   3.06279   3.06665   3.06823
 Alpha virt. eigenvalues --    3.06917   3.07266   3.07718   3.07826   3.08144
 Alpha virt. eigenvalues --    3.08424   3.08833   3.09150   3.09390   3.10316
 Alpha virt. eigenvalues --    3.10519   3.10952   3.11124   3.11463   3.11642
 Alpha virt. eigenvalues --    3.12547   3.12670   3.12745   3.13038   3.13166
 Alpha virt. eigenvalues --    3.13314   3.13982   3.14102   3.14860   3.15154
 Alpha virt. eigenvalues --    3.15243   3.15806   3.16298   3.16405   3.16768
 Alpha virt. eigenvalues --    3.17218   3.17522   3.17994   3.18188   3.18667
 Alpha virt. eigenvalues --    3.18900   3.18972   3.19355   3.19848   3.20174
 Alpha virt. eigenvalues --    3.20344   3.20839   3.21079   3.21281   3.21439
 Alpha virt. eigenvalues --    3.22057   3.22460   3.22550   3.23026   3.23131
 Alpha virt. eigenvalues --    3.23535   3.23618   3.24098   3.24518   3.24693
 Alpha virt. eigenvalues --    3.25112   3.25329   3.25840   3.26421   3.26607
 Alpha virt. eigenvalues --    3.26875   3.27039   3.27729   3.28794   3.29131
 Alpha virt. eigenvalues --    3.29412   3.29989   3.30945   3.31313   3.31720
 Alpha virt. eigenvalues --    3.31951   3.32124   3.32720   3.33090   3.33725
 Alpha virt. eigenvalues --    3.34039   3.34280   3.34437   3.35246   3.35645
 Alpha virt. eigenvalues --    3.35857   3.36062   3.36834   3.37124   3.37313
 Alpha virt. eigenvalues --    3.37556   3.37740   3.38182   3.38462   3.38810
 Alpha virt. eigenvalues --    3.39477   3.40266   3.40317   3.40577   3.40880
 Alpha virt. eigenvalues --    3.41104   3.41495   3.41724   3.41792   3.42434
 Alpha virt. eigenvalues --    3.42987   3.43330   3.43739   3.43864   3.44809
 Alpha virt. eigenvalues --    3.45280   3.45623   3.45851   3.46135   3.46276
 Alpha virt. eigenvalues --    3.46810   3.47346   3.47924   3.48139   3.48292
 Alpha virt. eigenvalues --    3.48668   3.48933   3.49161   3.49472   3.49681
 Alpha virt. eigenvalues --    3.50160   3.50479   3.50885   3.51304   3.51422
 Alpha virt. eigenvalues --    3.51612   3.51839   3.52240   3.52621   3.52906
 Alpha virt. eigenvalues --    3.53834   3.54274   3.54423   3.54772   3.54857
 Alpha virt. eigenvalues --    3.55083   3.55743   3.55957   3.56056   3.56687
 Alpha virt. eigenvalues --    3.57500   3.58422   3.58477   3.58821   3.59791
 Alpha virt. eigenvalues --    3.59867   3.60934   3.61059   3.61324   3.61692
 Alpha virt. eigenvalues --    3.62023   3.62956   3.63238   3.63452   3.63705
 Alpha virt. eigenvalues --    3.64198   3.64291   3.64780   3.64989   3.65179
 Alpha virt. eigenvalues --    3.65790   3.66475   3.66814   3.67361   3.67590
 Alpha virt. eigenvalues --    3.68034   3.68285   3.68490   3.69311   3.69430
 Alpha virt. eigenvalues --    3.69966   3.70180   3.71154   3.71400   3.72103
 Alpha virt. eigenvalues --    3.72271   3.72442   3.73613   3.73979   3.74385
 Alpha virt. eigenvalues --    3.74600   3.74782   3.75333   3.76126   3.76743
 Alpha virt. eigenvalues --    3.77416   3.77677   3.77959   3.78384   3.79042
 Alpha virt. eigenvalues --    3.79619   3.79980   3.80041   3.80393   3.81361
 Alpha virt. eigenvalues --    3.82555   3.82667   3.82756   3.83677   3.83798
 Alpha virt. eigenvalues --    3.83960   3.84244   3.84491   3.84758   3.85299
 Alpha virt. eigenvalues --    3.85649   3.86137   3.86698   3.86920   3.87289
 Alpha virt. eigenvalues --    3.87701   3.87984   3.88327   3.88512   3.89010
 Alpha virt. eigenvalues --    3.89421   3.90001   3.90170   3.90973   3.91130
 Alpha virt. eigenvalues --    3.91288   3.92026   3.92266   3.92701   3.92959
 Alpha virt. eigenvalues --    3.93813   3.93959   3.94085   3.94717   3.95006
 Alpha virt. eigenvalues --    3.95752   3.95992   3.96605   3.97013   3.97231
 Alpha virt. eigenvalues --    3.97478   3.98294   3.98452   3.98806   3.98987
 Alpha virt. eigenvalues --    3.99703   4.00357   4.00747   4.01178   4.01399
 Alpha virt. eigenvalues --    4.01474   4.02219   4.02855   4.03162   4.03259
 Alpha virt. eigenvalues --    4.03712   4.03862   4.04245   4.04608   4.05053
 Alpha virt. eigenvalues --    4.05326   4.06065   4.06097   4.06248   4.06472
 Alpha virt. eigenvalues --    4.06642   4.06683   4.06962   4.07263   4.07868
 Alpha virt. eigenvalues --    4.08079   4.08255   4.09191   4.09600   4.10016
 Alpha virt. eigenvalues --    4.10325   4.10478   4.11104   4.11358   4.11907
 Alpha virt. eigenvalues --    4.12422   4.12586   4.12651   4.13386   4.13750
 Alpha virt. eigenvalues --    4.13861   4.14495   4.14921   4.15693   4.15878
 Alpha virt. eigenvalues --    4.16330   4.16673   4.16986   4.17062   4.17291
 Alpha virt. eigenvalues --    4.17527   4.18396   4.18703   4.19514   4.19922
 Alpha virt. eigenvalues --    4.20639   4.20958   4.21226   4.21475   4.22082
 Alpha virt. eigenvalues --    4.22361   4.22548   4.22936   4.23384   4.24136
 Alpha virt. eigenvalues --    4.24942   4.25376   4.25691   4.25825   4.26814
 Alpha virt. eigenvalues --    4.27939   4.28040   4.28630   4.29116   4.29550
 Alpha virt. eigenvalues --    4.29998   4.30875   4.31263   4.31753   4.31866
 Alpha virt. eigenvalues --    4.32452   4.33146   4.33871   4.34462   4.34936
 Alpha virt. eigenvalues --    4.35314   4.35760   4.36682   4.38048   4.38294
 Alpha virt. eigenvalues --    4.38978   4.39492   4.39990   4.40546   4.40896
 Alpha virt. eigenvalues --    4.41224   4.42686   4.42874   4.43226   4.43494
 Alpha virt. eigenvalues --    4.44026   4.44782   4.45043   4.45422   4.45841
 Alpha virt. eigenvalues --    4.47049   4.47798   4.48563   4.49555   4.50745
 Alpha virt. eigenvalues --    4.51733   4.52179   4.52723   4.52821   4.53111
 Alpha virt. eigenvalues --    4.53453   4.53626   4.55204   4.55898   4.56511
 Alpha virt. eigenvalues --    4.56808   4.58436   4.60672   4.60947   4.61469
 Alpha virt. eigenvalues --    4.61704   4.62200   4.62783   4.62899   4.63053
 Alpha virt. eigenvalues --    4.63599   4.64210   4.64791   4.65164   4.66910
 Alpha virt. eigenvalues --    4.67816   4.67987   4.68728   4.69053   4.69229
 Alpha virt. eigenvalues --    4.70419   4.70595   4.71146   4.71622   4.71983
 Alpha virt. eigenvalues --    4.72555   4.73891   4.74661   4.75487   4.75824
 Alpha virt. eigenvalues --    4.75874   4.76890   4.79300   4.79784   4.80356
 Alpha virt. eigenvalues --    4.80595   4.80607   4.81411   4.82250   4.83765
 Alpha virt. eigenvalues --    4.84435   4.84960   4.86099   4.86111   4.87251
 Alpha virt. eigenvalues --    4.87591   4.88043   4.88857   4.89067   4.89976
 Alpha virt. eigenvalues --    4.90756   4.90882   4.91676   4.91951   4.92895
 Alpha virt. eigenvalues --    4.93029   4.93828   4.94761   4.95264   4.96317
 Alpha virt. eigenvalues --    4.96556   4.97433   4.98229   4.98291   4.99027
 Alpha virt. eigenvalues --    4.99374   5.01071   5.01360   5.02206   5.02919
 Alpha virt. eigenvalues --    5.03323   5.04316   5.04903   5.05679   5.06468
 Alpha virt. eigenvalues --    5.07286   5.08390   5.09313   5.09932   5.11060
 Alpha virt. eigenvalues --    5.12140   5.13171   5.13358   5.13831   5.14487
 Alpha virt. eigenvalues --    5.15655   5.16724   5.16993   5.17542   5.17853
 Alpha virt. eigenvalues --    5.17960   5.19127   5.20258   5.20304   5.20894
 Alpha virt. eigenvalues --    5.22025   5.22850   5.22953   5.23087   5.23937
 Alpha virt. eigenvalues --    5.24172   5.24579   5.24985   5.25195   5.25949
 Alpha virt. eigenvalues --    5.26663   5.26782   5.27767   5.28578   5.29224
 Alpha virt. eigenvalues --    5.29422   5.29604   5.30051   5.30598   5.30821
 Alpha virt. eigenvalues --    5.31632   5.32019   5.32864   5.33180   5.33749
 Alpha virt. eigenvalues --    5.34906   5.35194   5.36059   5.36496   5.36716
 Alpha virt. eigenvalues --    5.37357   5.37659   5.38333   5.38780   5.39785
 Alpha virt. eigenvalues --    5.40974   5.41321   5.41915   5.42601   5.42657
 Alpha virt. eigenvalues --    5.42959   5.43111   5.43714   5.44407   5.44601
 Alpha virt. eigenvalues --    5.46923   5.47949   5.48577   5.48776   5.48828
 Alpha virt. eigenvalues --    5.49972   5.50653   5.51007   5.51261   5.53647
 Alpha virt. eigenvalues --    5.55069   5.56306   5.56577   5.57603   5.58062
 Alpha virt. eigenvalues --    5.58358   5.58879   5.59372   5.59400   5.60200
 Alpha virt. eigenvalues --    5.60786   5.61021   5.61424   5.62185   5.62939
 Alpha virt. eigenvalues --    5.63835   5.64032   5.64778   5.64891   5.66985
 Alpha virt. eigenvalues --    5.67847   5.69181   5.70086   5.70850   5.71143
 Alpha virt. eigenvalues --    5.72514   5.72955   5.74432   5.74562   5.77562
 Alpha virt. eigenvalues --    5.85053   5.86886   5.90504   5.90968   5.91334
 Alpha virt. eigenvalues --    5.93841   5.96814   6.01200   6.01413   6.03419
 Alpha virt. eigenvalues --    6.05539   6.05930   6.12658   6.13819   6.15510
 Alpha virt. eigenvalues --    6.29710   6.31057   6.31577   6.40007   6.46351
 Alpha virt. eigenvalues --    6.50264   6.54719   6.59908   6.68055   6.69699
 Alpha virt. eigenvalues --    6.81887   6.84304   6.94089   6.94279   6.96103
 Alpha virt. eigenvalues --    6.97494   6.98400   6.99086   6.99541   7.05492
 Alpha virt. eigenvalues --    7.05959   7.12179   7.17599   7.21898   7.22848
 Alpha virt. eigenvalues --    7.24612   7.26155   7.33668   7.34883   7.40639
 Alpha virt. eigenvalues --    7.50117   8.43773   8.45275   8.56631   8.58554
 Alpha virt. eigenvalues --    8.81306   8.87904   8.90233   8.90536   8.92090
 Alpha virt. eigenvalues --    8.99987  15.88845  22.83945  22.88141  22.91945
 Alpha virt. eigenvalues --   22.99996  23.08042  23.17367  23.22172  23.29525
 Alpha virt. eigenvalues --   23.29870  23.32124  23.33938  23.37148  23.41199
 Alpha virt. eigenvalues --   23.46868  23.46919  23.49422  23.54947  23.66061
 Alpha virt. eigenvalues --   23.69365  23.69691  23.71103  23.73767  23.74097
 Alpha virt. eigenvalues --   23.78427  23.86713  23.88983  24.07499  24.32640
 Alpha virt. eigenvalues --   24.46752  32.25255  33.13039  33.30638  44.02167
 Alpha virt. eigenvalues --   44.16068  57.30374  57.55042
          Condensed to atoms (all electrons):
 Mulliken charges:
               1
     1  C   -0.303463
     2  C   -0.401417
     3  C    0.042067
     4  C    0.137557
     5  C   -0.434500
     6  N   -0.104564
     7  C    0.054083
     8  C    0.117573
     9  C   -0.490750
    10  C    0.061549
    11  C   -0.044715
    12  C   -0.070634
    13  C    0.113255
    14  C   -0.140534
    15  C   -0.108616
    16  C    0.007212
    17  C   -0.134961
    18  C   -0.162928
    19  C    0.028172
    20  C   -0.018576
    21  C   -0.167861
    22  N   -0.060093
    23  C    0.389435
    24  O   -0.320805
    25  O   -0.382791
    26  C    0.055983
    27  C    0.118564
    28  C   -0.491820
    29  C    0.041270
    30  C   -0.401394
    31  C   -0.303353
    32  C    0.138000
    33  C   -0.434224
    34  N   -0.104764
    35  B    0.390860
    36  F   -0.357072
    37  F   -0.356613
    38  H    0.114154
    39  H    0.124869
    40  H    0.114309
    41  H    0.127431
    42  H    0.124997
    43  H    0.162662
    44  H    0.136428
    45  H    0.160219
    46  H    0.161613
    47  H    0.160740
    48  H    0.123289
    49  H    0.171836
    50  H    0.155850
    51  H    0.162676
    52  H    0.170789
    53  H    0.144025
    54  H    0.273176
    55  H    0.160998
    56  H    0.123593
    57  H    0.162223
    58  H    0.125549
    59  H    0.126975
    60  H    0.114210
    61  H    0.114182
    62  H    0.124871
    63  H    0.160432
    64  H    0.162482
    65  H    0.136286
 Sum of Mulliken charges =  -0.00000
 Mulliken charges with hydrogens summed into heavy atoms:
               1
     1  C    0.049869
     2  C   -0.148990
     3  C    0.042067
     4  C    0.137557
     5  C    0.024809
     6  N   -0.104564
     7  C    0.054083
     8  C    0.117573
     9  C   -0.045109
    10  C    0.061549
    11  C   -0.044715
    12  C   -0.070634
    13  C    0.113255
    14  C    0.031302
    15  C    0.047235
    16  C    0.007212
    17  C    0.027715
    18  C    0.007860
    19  C    0.172197
    20  C   -0.018576
    21  C   -0.167861
    22  N   -0.060093
    23  C    0.389435
    24  O   -0.047629
    25  O   -0.382791
    26  C    0.055983
    27  C    0.118564
    28  C   -0.045004
    29  C    0.041270
    30  C   -0.148869
    31  C    0.049909
    32  C    0.138000
    33  C    0.024976
    34  N   -0.104764
    35  B    0.390860
    36  F   -0.357072
    37  F   -0.356613
 Electronic spatial extent (au):  <R**2>=          29796.3848
 Charge=              0.0000 electrons
 Dipole moment (field-independent basis, Debye):
    X=              2.2882    Y=             -7.5077    Z=             -0.7378  Tot=              7.8833
 Quadrupole moment (field-independent basis, Debye-Ang):
   XX=           -277.6223   YY=           -183.6840   ZZ=           -224.9604
   XY=            -54.6349   XZ=             -5.4556   YZ=             -4.0954
 Traceless Quadrupole moment (field-independent basis, Debye-Ang):
   XX=            -48.8667   YY=             45.0716   ZZ=              3.7952
   XY=            -54.6349   XZ=             -5.4556   YZ=             -4.0954
 Octapole moment (field-independent basis, Debye-Ang**2):
  XXX=           -290.6970  YYY=            -55.5392  ZZZ=             -0.4923  XYY=           -150.6428
  XXY=           -530.9010  XXZ=            -46.4541  XZZ=             14.4284  YZZ=             -1.9822
  YYZ=             -6.4610  XYZ=              8.1695
 Hexadecapole moment (field-independent basis, Debye-Ang**3):
 XXXX=         -34773.5458 YYYY=          -8417.3108 ZZZZ=           -525.3099 XXXY=          -4518.9968
 XXXZ=           -451.0076 YYYX=           -532.2766 YYYZ=           -101.9232 ZZZX=             -6.1713
 ZZZY=              2.4962 XXYY=          -6231.2982 XXZZ=          -5270.3854 YYZZ=          -1640.1859
 XXYZ=            -99.1582 YYXZ=            -43.6489 ZZXY=            -29.2854
 N-N= 3.681163581024D+03 E-N=-1.123465432187D+04  KE= 1.652352057406D+03
 No NMR shielding tensors so no spin-rotation constants.
 Leave Link  601 at Thu Nov  6 20:05:24 2025, MaxMem= 30870077440 cpu:             114.8 elap:               2.1
 (Enter /public/software/gauss/g16/l9999.exe)
 1\1\GINC-CU015\SP\RM062X\def2TZVPP\C29H28B1F2N3O2\BAIDING\06-Nov-2025\
 0\\#p M062X/DEF2TZVPP scrf=(solvent=water) em=GD3\\Energy calculation 
 for M100034656\\0,1\C,0,3.700384,-5.499421,0.897132\C,0,3.577919,-4.78
 96,-0.461791\C,0,3.408066,-3.299089,-0.343578\C,0,4.462627,-2.358163,-
 0.262317\C,0,5.932312,-2.613193,-0.289151\N,0,3.949847,-1.109797,-0.13
 5092\C,0,2.558212,-1.20569,-0.124263\C,0,2.20597,-2.584359,-0.255535\C
 ,0,0.832102,-3.179922,-0.292429\C,0,1.769219,-0.039218,0.005511\C,0,0.
 356217,-0.150338,0.010709\C,0,-0.85778,-0.245359,0.014422\C,0,-2.27385
 1,-0.357289,0.02083\C,0,-2.891562,-1.623621,0.083054\C,0,-4.273591,-1.
 718356,0.093324\C,0,-5.090117,-0.565806,0.037761\C,0,-4.461826,0.69860
 6,-0.024479\C,0,-3.081051,0.801038,-0.031625\C,0,-6.523311,-0.789048,0
 .053105\C,0,-7.578778,0.073525,-0.02063\C,0,-7.475838,1.491645,-0.1480
 81\N,0,-7.424407,2.651819,-0.254954\C,0,-8.985895,-0.405672,0.019529\O
 ,0,-9.100779,-1.738309,0.145606\O,0,-9.947363,0.346313,-0.053895\C,0,2
 .367633,1.235993,0.130464\C,0,1.806208,2.542047,0.276358\C,0,0.356884,
 2.915062,0.338448\C,0,2.883114,3.435275,0.354334\C,0,2.82121,4.933205,
 0.484241\C,0,2.796987,5.662657,-0.869593\C,0,4.070319,2.67126,0.251011
 \C,0,5.482128,3.15317,0.256236\N,0,3.757222,1.358656,0.122666\B,0,4.77
 1038,0.197502,-0.02024\F,0,5.611164,0.139289,1.103631\F,0,5.557737,0.3
 85003,-1.168655\H,0,2.806656,-5.335259,1.508401\H,0,3.825358,-6.579238
 ,0.762672\H,0,4.562814,-5.12683,1.46006\H,0,4.467696,-5.009836,-1.0621
 42\H,0,2.73013,-5.211441,-1.012062\H,0,6.377575,-2.42639,0.694666\H,0,
 6.142188,-3.646332,-0.569407\H,0,6.429374,-1.945551,-0.998533\H,0,0.28
 4337,-2.989998,0.636582\H,0,0.230982,-2.76553,-1.107695\H,0,0.888465,-
 4.261716,-0.431434\H,0,-2.280698,-2.518354,0.125464\H,0,-4.742508,-2.6
 96042,0.143783\H,0,-5.04889,1.606543,-0.062076\H,0,-2.610292,1.776702,
 -0.078139\H,0,-6.804873,-1.834195,0.136381\H,0,-10.050722,-1.954006,0.
 162884\H,0,-0.160282,2.402448,1.155413\H,0,0.245256,3.990672,0.491179\
 H,0,-0.168079,2.65234,-0.586029\H,0,1.933072,5.214759,1.059953\H,0,3.6
 81571,5.284631,1.064645\H,0,3.691479,5.431363,-1.457702\H,0,1.923512,5
 .366868,-1.460266\H,0,2.757551,6.747876,-0.726611\H,0,6.088646,2.57067
 ,0.955385\H,0,5.935141,3.038634,-0.735129\H,0,5.532274,4.206254,0.5361
 64\\Version=ES64L-G16RevA.03\State=1-A\HF=-1661.3485718\RMSD=4.041e-09
 \Dipole=-0.9002548,-2.9537757,0.2902853\Quadrupole=-36.3312275,33.5096
 194,2.8216081,40.6197233,-4.0561109,3.0448294\PG=C01 [X(C29H28B1F2N3O2
 )]\\@


 EVERYBODY NEEDS BEAUTY AS WELL AS BREAD, PLACES TO PLAY IN AND PRAY IN,
 WHERE NATURE MAY HEAL AND CHEER AND GIVE STRENGTH TO BODY AND SOUL ALIKE.

                                    -- JOHN MUIR
 Job cpu time:       0 days 10 hours 55 minutes 38.2 seconds.
 Elapsed time:       0 days  0 hours 10 minutes 27.0 seconds.
 File lengths (MBytes):  RWF=   1592 Int=      0 D2E=      0 Chk=    139 Scr=      1
 Normal termination of Gaussian 16 at Thu Nov  6 20:05:25 2025.
