 Entering Gaussian System, Link 0=g16
 Input=M100039987_sp.gjf
 Output=M100039987_sp.log
 Initial command:
 /public/software/gauss/g16/l1.exe "/public/home/baiding/1101_v2_sp/tmp_M100039987_sp_1568608/Gau-56767.inp" -scrdir="/public/home/baiding/1101_v2_sp/tmp_M100039987_sp_1568608/"
 Entering Link 1 = /public/software/gauss/g16/l1.exe PID=     56768.
  
 Copyright (c) 1988,1990,1992,1993,1995,1998,2003,2009,2016,
            Gaussian, Inc.  All Rights Reserved.
  
 This is part of the Gaussian(R) 16 program.  It is based on
 the Gaussian(R) 09 system (copyright 2009, Gaussian, Inc.),
 the Gaussian(R) 03 system (copyright 2003, Gaussian, Inc.),
 the Gaussian(R) 98 system (copyright 1998, Gaussian, Inc.),
 the Gaussian(R) 94 system (copyright 1995, Gaussian, Inc.),
 the Gaussian 92(TM) system (copyright 1992, Gaussian, Inc.),
 the Gaussian 90(TM) system (copyright 1990, Gaussian, Inc.),
 the Gaussian 88(TM) system (copyright 1988, Gaussian, Inc.),
 the Gaussian 86(TM) system (copyright 1986, Carnegie Mellon
 University), and the Gaussian 82(TM) system (copyright 1983,
 Carnegie Mellon University). Gaussian is a federally registered
 trademark of Gaussian, Inc.
  
 This software contains proprietary and confidential information,
 including trade secrets, belonging to Gaussian, Inc.
  
 This software is provided under written license and may be
 used, copied, transmitted, or stored only in accord with that
 written license.
  
 The following legend is applicable only to US Government
 contracts under FAR:
  
                    RESTRICTED RIGHTS LEGEND
  
 Use, reproduction and disclosure by the US Government is
 subject to restrictions as set forth in subparagraphs (a)
 and (c) of the Commercial Computer Software - Restricted
 Rights clause in FAR 52.227-19.
  
 Gaussian, Inc.
 340 Quinnipiac St., Bldg. 40, Wallingford CT 06492
  
  
 ---------------------------------------------------------------
 Warning -- This program may not be used in any manner that
 competes with the business of Gaussian, Inc. or will provide
 assistance to any competitor of Gaussian, Inc.  The licensee
 of this program is prohibited from giving any competitor of
 Gaussian, Inc. access to this program.  By using this program,
 the user acknowledges that Gaussian, Inc. is engaged in the
 business of creating and licensing software in the field of
 computational chemistry and represents and warrants to the
 licensee that it is not a competitor of Gaussian, Inc. and that
 it will not use this program in any manner prohibited above.
 ---------------------------------------------------------------
  

 Cite this work as:
 Gaussian 16, Revision A.03,
 M. J. Frisch, G. W. Trucks, H. B. Schlegel, G. E. Scuseria, 
 M. A. Robb, J. R. Cheeseman, G. Scalmani, V. Barone, 
 G. A. Petersson, H. Nakatsuji, X. Li, M. Caricato, A. V. Marenich, 
 J. Bloino, B. G. Janesko, R. Gomperts, B. Mennucci, H. P. Hratchian, 
 J. V. Ortiz, A. F. Izmaylov, J. L. Sonnenberg, D. Williams-Young, 
 F. Ding, F. Lipparini, F. Egidi, J. Goings, B. Peng, A. Petrone, 
 T. Henderson, D. Ranasinghe, V. G. Zakrzewski, J. Gao, N. Rega, 
 G. Zheng, W. Liang, M. Hada, M. Ehara, K. Toyota, R. Fukuda, 
 J. Hasegawa, M. Ishida, T. Nakajima, Y. Honda, O. Kitao, H. Nakai, 
 T. Vreven, K. Throssell, J. A. Montgomery, Jr., J. E. Peralta, 
 F. Ogliaro, M. J. Bearpark, J. J. Heyd, E. N. Brothers, K. N. Kudin, 
 V. N. Staroverov, T. A. Keith, R. Kobayashi, J. Normand, 
 K. Raghavachari, A. P. Rendell, J. C. Burant, S. S. Iyengar, 
 J. Tomasi, M. Cossi, J. M. Millam, M. Klene, C. Adamo, R. Cammi, 
 J. W. Ochterski, R. L. Martin, K. Morokuma, O. Farkas, 
 J. B. Foresman, and D. J. Fox, Gaussian, Inc., Wallingford CT, 2016.
 
 ******************************************
 Gaussian 16:  ES64L-G16RevA.03 25-Dec-2016
                 7-Nov-2025 
 ******************************************
 %nprocshared=64
 Will use up to   64 processors via shared memory.
 %mem=230GB
 %chk=M100039987_sp.chk
 ----------------------------------------------
 #p M062X/DEF2TZVPP scrf=(solvent=water) em=GD3
 ----------------------------------------------
 1/38=1,172=1/1;
 2/12=2,17=6,18=5,40=1/2;
 3/5=44,7=202,11=2,25=1,30=1,70=2201,72=1,74=-55,124=31/1,2,3;
 4//1;
 5/5=2,38=5,53=1/2;
 6/7=2,8=2,9=2,10=2,28=1/1;
 99/5=1,9=1/99;
 Leave Link    1 at Fri Nov  7 20:41:58 2025, MaxMem= 30870077440 cpu:              18.5 elap:               0.3
 (Enter /public/software/gauss/g16/l101.exe)
 ---------------------------------
 Energy calculation for M100039987
 ---------------------------------
 Symbolic Z-matrix:
 Charge =  0 Multiplicity = 1
 F                     0.63231   0.27183  -1.1845 
 B                    -0.08697   0.16062   0.0145 
 F                     0.72526   0.50769   1.09561 
 N                    -0.56911  -1.31552   0.16805 
 C                     0.2357   -2.41522   0.21726 
 C                     1.67427  -2.26917   0.27368 
 C                     2.56094  -3.1871   -0.17689 
 C                     4.01709  -3.06125  -0.16273 
 C                     4.69929  -1.95632   0.38824 
 C                     6.0857   -1.89323   0.36375 
 C                     6.82551  -2.93382  -0.21302 
 C                     6.17019  -4.03946  -0.76027 
 C                     4.78073  -4.09791  -0.7338 
 C                     8.32464  -2.88025  -0.18894 
 F                     8.88219  -3.60908  -1.18262 
 F                     8.83294  -3.36363   0.97446 
 F                     8.79209  -1.61553  -0.31119 
 C                    -0.59005  -3.59066   0.15638 
 C                    -1.90064  -3.14793   0.02703 
 C                    -1.88876  -1.73346   0.04883 
 C                    -2.93942  -0.80772  -0.03541 
 C                    -2.65944   0.57178  -0.02317 
 C                    -3.55492   1.65768   0.07469 
 C                    -2.80302   2.82501   0.12546 
 C                    -1.42288   2.43472   0.0611 
 C                    -0.317     3.36227   0.14524 
 C                     0.94617   3.20045  -0.31611 
 C                     2.02896   4.17567  -0.19841 
 C                     1.93523   5.36569   0.55379 
 C                     3.00362   6.24932   0.6237 
 C                     4.19673   5.96372  -0.05268 
 C                     4.31307   4.78937  -0.80036 
 C                     3.23979   3.90724  -0.86697 
 C                     5.32826   6.94752  -0.00982 
 F                     5.1968    7.91806  -0.95132 
 F                     6.52817   6.3623   -0.22824 
 F                     5.40661   7.58412   1.18275 
 N                    -1.3554    1.0703   -0.02136 
 C                    -3.3547    4.18616   0.21263 
 C                    -4.48634   4.42337   1.01765 
 C                    -5.04695   5.69193   1.09627 
 C                    -4.49091   6.75866   0.37314 
 C                    -5.09663   8.09229   0.47643 
 O                    -4.69308   9.09224  -0.11256 
 C                    -3.36811   6.53003  -0.43943 
 C                    -2.8106    5.26213  -0.52167 
 C                    -4.34399  -1.27686  -0.12293 
 C                    -4.86297  -2.17      0.82998 
 C                    -6.18189  -2.60584   0.74545 
 C                    -6.9964   -2.15839  -0.2982 
 C                    -6.49304  -1.27343  -1.25502 
 C                    -5.17652  -0.83156  -1.16396 
 C                    -8.40237  -2.67389  -0.42025 
 F                    -8.95232  -2.94617   0.78534 
 F                    -9.21851  -1.79289  -1.04197 
 F                    -8.45832  -3.82466  -1.13744 
 C                    -0.20379  -5.00861   0.28297 
 C                    -0.78845  -5.9671   -0.57072 
 C                    -0.49248  -7.31542  -0.43229 
 C                     0.3964   -7.74265   0.56812 
 C                     0.72716  -9.16338   0.73587 
 O                     0.28143  -10.07293   0.04041 
 C                     0.97751  -6.79551   1.42567 
 C                     0.681    -5.44501   1.28697 
 H                     2.02522  -1.32207   0.66874 
 H                     2.18999  -4.10721  -0.61836 
 H                     4.1452   -1.1397    0.83781 
 H                     6.59524  -1.0346    0.78764 
 H                     6.73977  -4.84613  -1.20821 
 H                     4.27212  -4.95551  -1.16372 
 H                    -2.78068  -3.77083  -0.03348 
 H                    -4.63201   1.58487   0.09382 
 H                    -0.59269   4.30918   0.59971 
 H                     1.20395   2.29381  -0.85131 
 H                     1.02791   5.59929   1.09992 
 H                     2.91653   7.15675   1.21153 
 H                     5.23636   4.56207  -1.3216 
 H                     3.33381   2.99254  -1.44439 
 H                    -4.9109    3.60794   1.59405 
 H                    -5.91572   5.86632   1.72535 
 H                    -5.97716   8.15469   1.14435 
 H                    -2.94944   7.35254  -1.01036 
 H                    -1.96508   5.09215  -1.17884 
 H                    -4.2402   -2.50232   1.65297 
 H                    -6.57593  -3.28289   1.49517 
 H                    -7.12389  -0.92864  -2.06665 
 H                    -4.7851   -0.15271  -1.91342 
 H                    -1.46779  -5.63889  -1.35088 
 H                    -0.93913  -8.04945  -1.09528 
 H                     1.43187  -9.38424   1.56044 
 H                     1.6557   -7.12708   2.20739 
 H                     1.12297  -4.72248   1.96409 
 
 ITRead=  0  0  0  0  0  0  0  0  0  0  0  0  0  0  0  0  0  0  0  0
 ITRead=  0  0  0  0  0  0  0  0  0  0  0  0  0  0  0  0  0  0  0  0
 ITRead=  0  0  0  0  0  0  0  0  0  0  0  0  0  0  0  0  0  0  0  0
 ITRead=  0  0  0  0  0  0  0  0  0  0  0  0  0  0  0  0  0  0  0  0
 ITRead=  0  0  0  0  0  0  0  0  0  0  0  0
 MicOpt= -1 -1 -1 -1 -1 -1 -1 -1 -1 -1 -1 -1 -1 -1 -1 -1 -1 -1 -1 -1
 MicOpt= -1 -1 -1 -1 -1 -1 -1 -1 -1 -1 -1 -1 -1 -1 -1 -1 -1 -1 -1 -1
 MicOpt= -1 -1 -1 -1 -1 -1 -1 -1 -1 -1 -1 -1 -1 -1 -1 -1 -1 -1 -1 -1
 MicOpt= -1 -1 -1 -1 -1 -1 -1 -1 -1 -1 -1 -1 -1 -1 -1 -1 -1 -1 -1 -1
 MicOpt= -1 -1 -1 -1 -1 -1 -1 -1 -1 -1 -1 -1
 NAtoms=     92 NQM=       92 NQMF=       0 NMMI=      0 NMMIF=      0
                NMic=       0 NMicF=      0.
                    Isotopes and Nuclear Properties:
 (Nuclear quadrupole moments (NQMom) in fm**2, nuclear magnetic moments (NMagM)
  in nuclear magnetons)

  Atom         1           2           3           4           5           6           7           8           9          10
 IAtWgt=          19          11          19          14          12          12          12          12          12          12
 AtmWgt=  18.9984033  11.0093053  18.9984033  14.0030740  12.0000000  12.0000000  12.0000000  12.0000000  12.0000000  12.0000000
 NucSpn=           1           3           1           2           0           0           0           0           0           0
 AtZEff=  -0.0000000  -0.0000000  -0.0000000  -0.0000000  -0.0000000  -0.0000000  -0.0000000  -0.0000000  -0.0000000  -0.0000000
 NQMom=    0.0000000   4.0590000   0.0000000   2.0440000   0.0000000   0.0000000   0.0000000   0.0000000   0.0000000   0.0000000
 NMagM=    2.6288670   2.6886370   2.6288670   0.4037610   0.0000000   0.0000000   0.0000000   0.0000000   0.0000000   0.0000000
 AtZNuc=   9.0000000   5.0000000   9.0000000   7.0000000   6.0000000   6.0000000   6.0000000   6.0000000   6.0000000   6.0000000

  Atom        11          12          13          14          15          16          17          18          19          20
 IAtWgt=          12          12          12          12          19          19          19          12          12          12
 AtmWgt=  12.0000000  12.0000000  12.0000000  12.0000000  18.9984033  18.9984033  18.9984033  12.0000000  12.0000000  12.0000000
 NucSpn=           0           0           0           0           1           1           1           0           0           0
 AtZEff=  -0.0000000  -0.0000000  -0.0000000  -0.0000000  -0.0000000  -0.0000000  -0.0000000  -0.0000000  -0.0000000  -0.0000000
 NQMom=    0.0000000   0.0000000   0.0000000   0.0000000   0.0000000   0.0000000   0.0000000   0.0000000   0.0000000   0.0000000
 NMagM=    0.0000000   0.0000000   0.0000000   0.0000000   2.6288670   2.6288670   2.6288670   0.0000000   0.0000000   0.0000000
 AtZNuc=   6.0000000   6.0000000   6.0000000   6.0000000   9.0000000   9.0000000   9.0000000   6.0000000   6.0000000   6.0000000

  Atom        21          22          23          24          25          26          27          28          29          30
 IAtWgt=          12          12          12          12          12          12          12          12          12          12
 AtmWgt=  12.0000000  12.0000000  12.0000000  12.0000000  12.0000000  12.0000000  12.0000000  12.0000000  12.0000000  12.0000000
 NucSpn=           0           0           0           0           0           0           0           0           0           0
 AtZEff=  -0.0000000  -0.0000000  -0.0000000  -0.0000000  -0.0000000  -0.0000000  -0.0000000  -0.0000000  -0.0000000  -0.0000000
 NQMom=    0.0000000   0.0000000   0.0000000   0.0000000   0.0000000   0.0000000   0.0000000   0.0000000   0.0000000   0.0000000
 NMagM=    0.0000000   0.0000000   0.0000000   0.0000000   0.0000000   0.0000000   0.0000000   0.0000000   0.0000000   0.0000000
 AtZNuc=   6.0000000   6.0000000   6.0000000   6.0000000   6.0000000   6.0000000   6.0000000   6.0000000   6.0000000   6.0000000

  Atom        31          32          33          34          35          36          37          38          39          40
 IAtWgt=          12          12          12          12          19          19          19          14          12          12
 AtmWgt=  12.0000000  12.0000000  12.0000000  12.0000000  18.9984033  18.9984033  18.9984033  14.0030740  12.0000000  12.0000000
 NucSpn=           0           0           0           0           1           1           1           2           0           0
 AtZEff=  -0.0000000  -0.0000000  -0.0000000  -0.0000000  -0.0000000  -0.0000000  -0.0000000  -0.0000000  -0.0000000  -0.0000000
 NQMom=    0.0000000   0.0000000   0.0000000   0.0000000   0.0000000   0.0000000   0.0000000   2.0440000   0.0000000   0.0000000
 NMagM=    0.0000000   0.0000000   0.0000000   0.0000000   2.6288670   2.6288670   2.6288670   0.4037610   0.0000000   0.0000000
 AtZNuc=   6.0000000   6.0000000   6.0000000   6.0000000   9.0000000   9.0000000   9.0000000   7.0000000   6.0000000   6.0000000

  Atom        41          42          43          44          45          46          47          48          49          50
 IAtWgt=          12          12          12          16          12          12          12          12          12          12
 AtmWgt=  12.0000000  12.0000000  12.0000000  15.9949146  12.0000000  12.0000000  12.0000000  12.0000000  12.0000000  12.0000000
 NucSpn=           0           0           0           0           0           0           0           0           0           0
 AtZEff=  -0.0000000  -0.0000000  -0.0000000  -0.0000000  -0.0000000  -0.0000000  -0.0000000  -0.0000000  -0.0000000  -0.0000000
 NQMom=    0.0000000   0.0000000   0.0000000   0.0000000   0.0000000   0.0000000   0.0000000   0.0000000   0.0000000   0.0000000
 NMagM=    0.0000000   0.0000000   0.0000000   0.0000000   0.0000000   0.0000000   0.0000000   0.0000000   0.0000000   0.0000000
 AtZNuc=   6.0000000   6.0000000   6.0000000   8.0000000   6.0000000   6.0000000   6.0000000   6.0000000   6.0000000   6.0000000

  Atom        51          52          53          54          55          56          57          58          59          60
 IAtWgt=          12          12          12          19          19          19          12          12          12          12
 AtmWgt=  12.0000000  12.0000000  12.0000000  18.9984033  18.9984033  18.9984033  12.0000000  12.0000000  12.0000000  12.0000000
 NucSpn=           0           0           0           1           1           1           0           0           0           0
 AtZEff=  -0.0000000  -0.0000000  -0.0000000  -0.0000000  -0.0000000  -0.0000000  -0.0000000  -0.0000000  -0.0000000  -0.0000000
 NQMom=    0.0000000   0.0000000   0.0000000   0.0000000   0.0000000   0.0000000   0.0000000   0.0000000   0.0000000   0.0000000
 NMagM=    0.0000000   0.0000000   0.0000000   2.6288670   2.6288670   2.6288670   0.0000000   0.0000000   0.0000000   0.0000000
 AtZNuc=   6.0000000   6.0000000   6.0000000   9.0000000   9.0000000   9.0000000   6.0000000   6.0000000   6.0000000   6.0000000

  Atom        61          62          63          64          65          66          67          68          69          70
 IAtWgt=          12          16          12          12           1           1           1           1           1           1
 AtmWgt=  12.0000000  15.9949146  12.0000000  12.0000000   1.0078250   1.0078250   1.0078250   1.0078250   1.0078250   1.0078250
 NucSpn=           0           0           0           0           1           1           1           1           1           1
 AtZEff=  -0.0000000  -0.0000000  -0.0000000  -0.0000000  -0.0000000  -0.0000000  -0.0000000  -0.0000000  -0.0000000  -0.0000000
 NQMom=    0.0000000   0.0000000   0.0000000   0.0000000   0.0000000   0.0000000   0.0000000   0.0000000   0.0000000   0.0000000
 NMagM=    0.0000000   0.0000000   0.0000000   0.0000000   2.7928460   2.7928460   2.7928460   2.7928460   2.7928460   2.7928460
 AtZNuc=   6.0000000   8.0000000   6.0000000   6.0000000   1.0000000   1.0000000   1.0000000   1.0000000   1.0000000   1.0000000

  Atom        71          72          73          74          75          76          77          78          79          80
 IAtWgt=           1           1           1           1           1           1           1           1           1           1
 AtmWgt=   1.0078250   1.0078250   1.0078250   1.0078250   1.0078250   1.0078250   1.0078250   1.0078250   1.0078250   1.0078250
 NucSpn=           1           1           1           1           1           1           1           1           1           1
 AtZEff=  -0.0000000  -0.0000000  -0.0000000  -0.0000000  -0.0000000  -0.0000000  -0.0000000  -0.0000000  -0.0000000  -0.0000000
 NQMom=    0.0000000   0.0000000   0.0000000   0.0000000   0.0000000   0.0000000   0.0000000   0.0000000   0.0000000   0.0000000
 NMagM=    2.7928460   2.7928460   2.7928460   2.7928460   2.7928460   2.7928460   2.7928460   2.7928460   2.7928460   2.7928460
 AtZNuc=   1.0000000   1.0000000   1.0000000   1.0000000   1.0000000   1.0000000   1.0000000   1.0000000   1.0000000   1.0000000

  Atom        81          82          83          84          85          86          87          88          89          90
 IAtWgt=           1           1           1           1           1           1           1           1           1           1
 AtmWgt=   1.0078250   1.0078250   1.0078250   1.0078250   1.0078250   1.0078250   1.0078250   1.0078250   1.0078250   1.0078250
 NucSpn=           1           1           1           1           1           1           1           1           1           1
 AtZEff=  -0.0000000  -0.0000000  -0.0000000  -0.0000000  -0.0000000  -0.0000000  -0.0000000  -0.0000000  -0.0000000  -0.0000000
 NQMom=    0.0000000   0.0000000   0.0000000   0.0000000   0.0000000   0.0000000   0.0000000   0.0000000   0.0000000   0.0000000
 NMagM=    2.7928460   2.7928460   2.7928460   2.7928460   2.7928460   2.7928460   2.7928460   2.7928460   2.7928460   2.7928460
 AtZNuc=   1.0000000   1.0000000   1.0000000   1.0000000   1.0000000   1.0000000   1.0000000   1.0000000   1.0000000   1.0000000

  Atom        91          92
 IAtWgt=           1           1
 AtmWgt=   1.0078250   1.0078250
 NucSpn=           1           1
 AtZEff=  -0.0000000  -0.0000000
 NQMom=    0.0000000   0.0000000
 NMagM=    2.7928460   2.7928460
 AtZNuc=   1.0000000   1.0000000
 Leave Link  101 at Fri Nov  7 20:41:58 2025, MaxMem= 30870077440 cpu:               4.2 elap:               0.1
 (Enter /public/software/gauss/g16/l202.exe)
 Stoichiometry    C48H28BF11N2O2
 Framework group  C1[X(C48H28BF11N2O2)]
 Deg. of freedom   270
 Full point group                 C1      NOp   1
 Largest Abelian subgroup         C1      NOp   1
 Largest concise Abelian subgroup C1      NOp   1
                         Standard orientation:                         
 ---------------------------------------------------------------------
 Center     Atomic      Atomic             Coordinates (Angstroms)
 Number     Number       Type             X           Y           Z
 ---------------------------------------------------------------------
      1          9           0        0.632306    0.271829   -1.184502
      2          5           0       -0.086967    0.160616    0.014501
      3          9           0        0.725264    0.507694    1.095611
      4          7           0       -0.569111   -1.315519    0.168047
      5          6           0        0.235697   -2.415216    0.217260
      6          6           0        1.674271   -2.269167    0.273676
      7          6           0        2.560940   -3.187094   -0.176893
      8          6           0        4.017089   -3.061252   -0.162725
      9          6           0        4.699286   -1.956322    0.388236
     10          6           0        6.085705   -1.893228    0.363753
     11          6           0        6.825510   -2.933818   -0.213019
     12          6           0        6.170188   -4.039456   -0.760266
     13          6           0        4.780727   -4.097912   -0.733796
     14          6           0        8.324639   -2.880242   -0.188936
     15          9           0        8.882187   -3.609076   -1.182615
     16          9           0        8.832941   -3.363625    0.974461
     17          9           0        8.792090   -1.615530   -0.311186
     18          6           0       -0.590048   -3.590658    0.156382
     19          6           0       -1.900642   -3.147930    0.027033
     20          6           0       -1.888760   -1.733461    0.048828
     21          6           0       -2.939417   -0.807717   -0.035413
     22          6           0       -2.659440    0.571778   -0.023166
     23          6           0       -3.554917    1.657683    0.074689
     24          6           0       -2.803023    2.825004    0.125455
     25          6           0       -1.422879    2.434716    0.061100
     26          6           0       -0.317005    3.362270    0.145237
     27          6           0        0.946167    3.200451   -0.316112
     28          6           0        2.028956    4.175670   -0.198413
     29          6           0        1.935225    5.365689    0.553786
     30          6           0        3.003616    6.249325    0.623696
     31          6           0        4.196724    5.963717   -0.052682
     32          6           0        4.313071    4.789373   -0.800357
     33          6           0        3.239790    3.907241   -0.866974
     34          6           0        5.328261    6.947523   -0.009817
     35          9           0        5.196799    7.918057   -0.951318
     36          9           0        6.528163    6.362301   -0.228238
     37          9           0        5.406604    7.584123    1.182754
     38          7           0       -1.355402    1.070304   -0.021364
     39          6           0       -3.354703    4.186158    0.212628
     40          6           0       -4.486340    4.423367    1.017648
     41          6           0       -5.046952    5.691924    1.096267
     42          6           0       -4.490914    6.758656    0.373143
     43          6           0       -5.096636    8.092286    0.476431
     44          8           0       -4.693087    9.092235   -0.112563
     45          6           0       -3.368109    6.530034   -0.439434
     46          6           0       -2.810597    5.262126   -0.521670
     47          6           0       -4.343990   -1.276857   -0.122931
     48          6           0       -4.862971   -2.170006    0.829982
     49          6           0       -6.181893   -2.605843    0.745448
     50          6           0       -6.996395   -2.158395   -0.298199
     51          6           0       -6.493043   -1.273431   -1.255019
     52          6           0       -5.176525   -0.831560   -1.163960
     53          6           0       -8.402365   -2.673895   -0.420248
     54          9           0       -8.952315   -2.946169    0.785339
     55          9           0       -9.218512   -1.792894   -1.041967
     56          9           0       -8.458319   -3.824660   -1.137441
     57          6           0       -0.203792   -5.008610    0.282970
     58          6           0       -0.788447   -5.967099   -0.570718
     59          6           0       -0.492482   -7.315416   -0.432294
     60          6           0        0.396404   -7.742649    0.568116
     61          6           0        0.727165   -9.163377    0.735871
     62          8           0        0.281428  -10.072931    0.040407
     63          6           0        0.977508   -6.795515    1.425674
     64          6           0        0.680997   -5.445008    1.286969
     65          1           0        2.025221   -1.322067    0.668744
     66          1           0        2.189992   -4.107210   -0.618360
     67          1           0        4.145199   -1.139702    0.837810
     68          1           0        6.595238   -1.034597    0.787636
     69          1           0        6.739767   -4.846123   -1.208211
     70          1           0        4.272123   -4.955509   -1.163722
     71          1           0       -2.780675   -3.770832   -0.033478
     72          1           0       -4.632009    1.584864    0.093815
     73          1           0       -0.592687    4.309180    0.599709
     74          1           0        1.203945    2.293808   -0.851313
     75          1           0        1.027903    5.599293    1.099924
     76          1           0        2.916532    7.156755    1.211526
     77          1           0        5.236362    4.562069   -1.321602
     78          1           0        3.333805    2.992542   -1.444393
     79          1           0       -4.910900    3.607942    1.594045
     80          1           0       -5.915724    5.866318    1.725348
     81          1           0       -5.977161    8.154687    1.144348
     82          1           0       -2.949438    7.352543   -1.010363
     83          1           0       -1.965084    5.092146   -1.178844
     84          1           0       -4.240202   -2.502320    1.652965
     85          1           0       -6.575924   -3.282894    1.495168
     86          1           0       -7.123890   -0.928637   -2.066650
     87          1           0       -4.785097   -0.152716   -1.913416
     88          1           0       -1.467790   -5.638892   -1.350877
     89          1           0       -0.939124   -8.049446   -1.095278
     90          1           0        1.431871   -9.384243    1.560436
     91          1           0        1.655701   -7.127076    2.207389
     92          1           0        1.122975   -4.722481    1.964087
 ---------------------------------------------------------------------
 Rotational constants (GHZ):           0.0254700           0.0232802           0.0124308
 Leave Link  202 at Fri Nov  7 20:41:58 2025, MaxMem= 30870077440 cpu:               0.2 elap:               0.0
 (Enter /public/software/gauss/g16/l301.exe)
 Standard basis: def2TZVPP (5D, 7F)
 Ernie: Thresh=  0.10000D-02 Tol=  0.10000D-05 Strict=F.
 There are  2724 symmetry adapted cartesian basis functions of A   symmetry.
 There are  2376 symmetry adapted basis functions of A   symmetry.
  2376 basis functions,  3740 primitive gaussians,  2724 cartesian basis functions
   225 alpha electrons      225 beta electrons
       nuclear repulsion energy      8573.8218578159 Hartrees.
 IExCor= 4336 DFT=T Ex+Corr=M062X ExCW=0 ScaHFX=  0.540000
 ScaDFX=  1.000000  1.000000  1.000000  1.000000 ScalE2=  1.000000  1.000000
 IRadAn=      5 IRanWt=     -1 IRanGd=            0 ICorTp=0 IEmpDi=131
 NAtoms=   92 NActive=   92 NUniq=   92 SFac= 1.00D+00 NAtFMM=   60 NAOKFM=T Big=T
 Integral buffers will be    131072 words long.
 Raffenetti 2 integral format.
 Two-electron integral symmetry is turned on.
 R6Disp:  Grimme-D3 Dispersion energy=       -0.0086030528 Hartrees.
 Nuclear repulsion after empirical dispersion term =     8573.8132547631 Hartrees.
 ------------------------------------------------------------------------------
 Polarizable Continuum Model (PCM)
 =================================
 Model                : PCM.
 Atomic radii         : UFF (Universal Force Field).
 Polarization charges : Total charges.
 Charge compensation  : None.
 Solution method      : On-the-fly selection.
 Cavity type          : Scaled VdW (van der Waals Surface) (Alpha=1.100).
 Cavity algorithm     : GePol (No added spheres)
                        Default sphere list used, NSphG=   92.
                        Lebedev-Laikov grids with approx.  5.0 points / Ang**2.
                        Smoothing algorithm: York/Karplus (Gamma=1.0000).
                        Polarization charges: spherical gaussians, with
                                              point-specific exponents (IZeta= 3).
                        Self-potential: point-specific (ISelfS= 7).
                        Self-field    : sphere-specific E.n sum rule (ISelfD= 2).
 Solvent              : Water, Eps=  78.355300 Eps(inf)=   1.777849
 ------------------------------------------------------------------------------
 GePol: Number of generator spheres                  =      92
 GePol: Total number of spheres                      =      92
 GePol: Number of exposed spheres                    =      92 (100.00%)
 GePol: Number of points                             =    7163
 GePol: Average weight of points                     =       0.13
 GePol: Minimum weight of points                     =   0.19D-11
 GePol: Maximum weight of points                     =    0.20577
 GePol: Number of points with low weight             =     458
 GePol: Fraction of low-weight points (<1% of avg)   =       6.39%
 GePol: Cavity surface area                          =    902.338 Ang**2
 GePol: Cavity volume                                =   1042.275 Ang**3
 Leave Link  301 at Fri Nov  7 20:41:58 2025, MaxMem= 30870077440 cpu:               4.5 elap:               0.1
 (Enter /public/software/gauss/g16/l302.exe)
 NPDir=0 NMtPBC=     1 NCelOv=     1 NCel=       1 NClECP=     1 NCelD=      1
         NCelK=      1 NCelE2=     1 NClLst=     1 CellRange=     0.0.
 One-electron integrals computed using PRISM.
 One-electron integral symmetry used in STVInt
   1 Symmetry operations used in ECPInt.
 ECPInt:  NShTT=  380628 NPrTT= 1133252 LenC2=  209537 LenP2D=  399245.
 LDataN:  DoStor=T MaxTD1= 6 Len=  172
 NBasis=  2376 RedAO= T EigKep=  5.21D-06  NBF=  2376
 NBsUse=  2376 1.00D-06 EigRej= -1.00D+00 NBFU=  2376
 Precomputing XC quadrature grid using
 IXCGrd= 4 IRadAn=           5 IRanWt=          -1 IRanGd=           0 AccXCQ= 0.00D+00.
 Generated NRdTot=       0 NPtTot=           0 NUsed=           0 NTot=          32
 NSgBfM=  2269  2259  2263  2269  2269 MxSgAt=    92 MxSgA2=    92.
 Leave Link  302 at Fri Nov  7 20:42:15 2025, MaxMem= 30870077440 cpu:            1102.4 elap:              17.3
 (Enter /public/software/gauss/g16/l303.exe)
 DipDrv:  MaxL=1.
 Leave Link  303 at Fri Nov  7 20:42:16 2025, MaxMem= 30870077440 cpu:              42.4 elap:               0.7
 (Enter /public/software/gauss/g16/l401.exe)
 ExpMin= 6.06D-02 ExpMax= 3.55D+04 ExpMxC= 1.21D+03 IAcc=3 IRadAn=         5 AccDes= 0.00D+00
 Harris functional with IExCor= 1009 and IRadAn=       5 diagonalized for initial guess.
 HarFok:  IExCor= 1009 AccDes= 0.00D+00 IRadAn=         5 IDoV= 1 UseB2=F ITyADJ=14
 ICtDFT=  3500011 ScaDFX=  1.000000  1.000000  1.000000  1.000000
 FoFCou: FMM=F IPFlag=           0 FMFlag=      100000 FMFlg1=        2001
         NFxFlg=           0 DoJE=T BraDBF=F KetDBF=T FulRan=T
         wScrn=  0.000000 ICntrl=       500 IOpCl=  0 I1Cent=   200000004 NGrid=           0
         NMat0=    1 NMatS0=      1 NMatT0=    0 NMatD0=    1 NMtDS0=    0 NMtDT0=    0
 Petite list used in FoFCou.
 Harris En= -3227.51629029787    
 JPrj=0 DoOrth=F DoCkMO=F.
 Leave Link  401 at Fri Nov  7 20:42:32 2025, MaxMem= 30870077440 cpu:            1037.9 elap:              16.3
 (Enter /public/software/gauss/g16/l502.exe)
 Integral symmetry usage will be decided dynamically.
 Closed shell SCF:
 Using DIIS extrapolation, IDIIS=  1040.
 NGot= 30870077440 LenX= 30855040136 LenY= 30847617236
 Requested convergence on RMS density matrix=1.00D-08 within 128 cycles.
 Requested convergence on MAX density matrix=1.00D-06.
 Requested convergence on             energy=1.00D-06.
 No special actions if energy rises.
 Fock matrices will be formed incrementally for  20 cycles.

 Cycle   1  Pass 1  IDiag  1:
 FoFJK:  IHMeth= 1 ICntrl=       0 DoSepK=F KAlg= 0 I1Cent=           0 FoldK=F
 IRaf= 500000000 NMat=       1 IRICut=       1 DoRegI=T DoRafI=F ISym2E= 0 IDoP0=0 IntGTp=1.
 FoFCou: FMM=T IPFlag=           0 FMFlag=      100000 FMFlg1=        2001
         NFxFlg=           0 DoJE=F BraDBF=F KetDBF=F FulRan=T
         wScrn=  0.000000 ICntrl=         0 IOpCl=  0 I1Cent=           0 NGrid=           0
         NMat0=    1 NMatS0=      1 NMatT0=    0 NMatD0=    1 NMtDS0=    0 NMtDT0=    0
 Symmetry not used in FoFCou.
 FMM levels:  10  Number of levels for PrismC:   9
 Inv3:  Mode=1 IEnd=   153925707.
 Iteration    1 A*A^-1 deviation from unit magnitude is 8.44D-15 for   7147.
 Iteration    1 A*A^-1 deviation from orthogonality  is 4.44D-15 for   7147   3228.
 Iteration    1 A^-1*A deviation from unit magnitude is 8.44D-15 for   7147.
 Iteration    1 A^-1*A deviation from orthogonality  is 4.39D-15 for   7152   3887.
 E= -3228.21620161821    
 DIIS: error= 1.93D-02 at cycle   1 NSaved=   1.
 NSaved= 1 IEnMin= 1 EnMin= -3228.21620161821     IErMin= 1 ErrMin= 1.93D-02
 ErrMax= 1.93D-02  0.00D+00 EMaxC= 1.00D-01 BMatC= 1.66D+00 BMatP= 1.66D+00
 IDIUse=3 WtCom= 8.07D-01 WtEn= 1.93D-01
 Coeff-Com:  0.100D+01
 Coeff-En:   0.100D+01
 Coeff:      0.100D+01
 Gap=     0.131 Goal=   None    Shift=    0.000
 GapD=    0.131 DampG=1.000 DampE=0.500 DampFc=0.5000 IDamp=-1.
 Damping current iteration by 5.00D-01
 RMSDP=1.48D-03 MaxDP=5.14D-01              OVMax= 1.58D-01

 Cycle   2  Pass 1  IDiag  1:
 RMSU=  7.38D-04    CP:  9.94D-01
 E= -3228.80105163363     Delta-E=       -0.584850015428 Rises=F Damp=T
 DIIS: error= 4.49D-03 at cycle   2 NSaved=   2.
 NSaved= 2 IEnMin= 2 EnMin= -3228.80105163363     IErMin= 2 ErrMin= 4.49D-03
 ErrMax= 4.49D-03  0.00D+00 EMaxC= 1.00D-01 BMatC= 1.72D-01 BMatP= 1.66D+00
 IDIUse=3 WtCom= 9.55D-01 WtEn= 4.49D-02
 Coeff-Com: -0.136D+00 0.114D+01
 Coeff-En:   0.000D+00 0.100D+01
 Coeff:     -0.130D+00 0.113D+01
 Gap=     0.145 Goal=   None    Shift=    0.000
 RMSDP=5.83D-04 MaxDP=1.16D-01 DE=-5.85D-01 OVMax= 1.08D-01

 Cycle   3  Pass 1  IDiag  1:
 RMSU=  5.77D-04    CP:  9.74D-01  1.06D+00
 E= -3229.32947804957     Delta-E=       -0.528426415935 Rises=F Damp=F
 DIIS: error= 3.82D-03 at cycle   3 NSaved=   3.
 NSaved= 3 IEnMin= 3 EnMin= -3229.32947804957     IErMin= 3 ErrMin= 3.82D-03
 ErrMax= 3.82D-03  0.00D+00 EMaxC= 1.00D-01 BMatC= 7.22D-02 BMatP= 1.72D-01
 IDIUse=3 WtCom= 9.62D-01 WtEn= 3.82D-02
 Coeff-Com: -0.144D+00 0.476D+00 0.668D+00
 Coeff-En:   0.000D+00 0.000D+00 0.100D+01
 Coeff:     -0.138D+00 0.458D+00 0.680D+00
 Gap=     0.134 Goal=   None    Shift=    0.000
 RMSDP=1.60D-04 MaxDP=5.52D-02 DE=-5.28D-01 OVMax= 4.23D-02

 Cycle   4  Pass 1  IDiag  1:
 RMSU=  1.39D-04    CP:  9.77D-01  1.15D+00  9.24D-01
 E= -3229.37484276346     Delta-E=       -0.045364713891 Rises=F Damp=F
 DIIS: error= 1.35D-03 at cycle   4 NSaved=   4.
 NSaved= 4 IEnMin= 4 EnMin= -3229.37484276346     IErMin= 4 ErrMin= 1.35D-03
 ErrMax= 1.35D-03  0.00D+00 EMaxC= 1.00D-01 BMatC= 1.18D-02 BMatP= 7.22D-02
 IDIUse=3 WtCom= 9.87D-01 WtEn= 1.35D-02
 Coeff-Com: -0.569D-01 0.136D+00 0.354D+00 0.567D+00
 Coeff-En:   0.000D+00 0.000D+00 0.989D-01 0.901D+00
 Coeff:     -0.561D-01 0.135D+00 0.350D+00 0.571D+00
 Gap=     0.136 Goal=   None    Shift=    0.000
 RMSDP=6.30D-05 MaxDP=2.83D-02 DE=-4.54D-02 OVMax= 1.39D-02

 Cycle   5  Pass 1  IDiag  1:
 RMSU=  4.11D-05    CP:  9.75D-01  1.12D+00  9.50D-01  7.22D-01
 E= -3229.38398947547     Delta-E=       -0.009146712007 Rises=F Damp=F
 DIIS: error= 3.11D-04 at cycle   5 NSaved=   5.
 NSaved= 5 IEnMin= 5 EnMin= -3229.38398947547     IErMin= 5 ErrMin= 3.11D-04
 ErrMax= 3.11D-04  0.00D+00 EMaxC= 1.00D-01 BMatC= 6.48D-04 BMatP= 1.18D-02
 IDIUse=3 WtCom= 9.97D-01 WtEn= 3.11D-03
 Coeff-Com: -0.172D-01 0.329D-01 0.121D+00 0.270D+00 0.593D+00
 Coeff-En:   0.000D+00 0.000D+00 0.000D+00 0.000D+00 0.100D+01
 Coeff:     -0.172D-01 0.328D-01 0.121D+00 0.269D+00 0.594D+00
 Gap=     0.136 Goal=   None    Shift=    0.000
 RMSDP=1.58D-05 MaxDP=3.72D-03 DE=-9.15D-03 OVMax= 4.02D-03

 Cycle   6  Pass 1  IDiag  1:
 RMSU=  1.42D-05    CP:  9.75D-01  1.13D+00  9.44D-01  7.17D-01  9.11D-01
 E= -3229.38452352794     Delta-E=       -0.000534052473 Rises=F Damp=F
 DIIS: error= 1.08D-04 at cycle   6 NSaved=   6.
 NSaved= 6 IEnMin= 6 EnMin= -3229.38452352794     IErMin= 6 ErrMin= 1.08D-04
 ErrMax= 1.08D-04  0.00D+00 EMaxC= 1.00D-01 BMatC= 3.79D-05 BMatP= 6.48D-04
 IDIUse=3 WtCom= 9.99D-01 WtEn= 1.08D-03
 Coeff-Com: -0.264D-02 0.345D-02 0.202D-01 0.559D-01 0.233D+00 0.690D+00
 Coeff-En:   0.000D+00 0.000D+00 0.000D+00 0.000D+00 0.000D+00 0.100D+01
 Coeff:     -0.263D-02 0.345D-02 0.202D-01 0.559D-01 0.233D+00 0.690D+00
 Gap=     0.137 Goal=   None    Shift=    0.000
 RMSDP=5.77D-06 MaxDP=1.59D-03 DE=-5.34D-04 OVMax= 2.49D-03

 Cycle   7  Pass 1  IDiag  1:
 RMSU=  4.67D-06    CP:  9.75D-01  1.12D+00  9.45D-01  7.15D-01  9.80D-01
                    CP:  9.82D-01
 E= -3229.38456114184     Delta-E=       -0.000037613903 Rises=F Damp=F
 DIIS: error= 3.28D-05 at cycle   7 NSaved=   7.
 NSaved= 7 IEnMin= 7 EnMin= -3229.38456114184     IErMin= 7 ErrMin= 3.28D-05
 ErrMax= 3.28D-05  0.00D+00 EMaxC= 1.00D-01 BMatC= 6.16D-06 BMatP= 3.79D-05
 IDIUse=1 WtCom= 1.00D+00 WtEn= 0.00D+00
 Coeff-Com:  0.141D-02-0.350D-02-0.937D-02-0.168D-01 0.186D-01 0.295D+00
 Coeff-Com:  0.715D+00
 Coeff:      0.141D-02-0.350D-02-0.937D-02-0.168D-01 0.186D-01 0.295D+00
 Coeff:      0.715D+00
 Gap=     0.137 Goal=   None    Shift=    0.000
 RMSDP=3.77D-06 MaxDP=1.16D-03 DE=-3.76D-05 OVMax= 1.16D-03

 Cycle   8  Pass 1  IDiag  1:
 RMSU=  2.62D-06    CP:  9.75D-01  1.12D+00  9.46D-01  7.15D-01  1.02D+00
                    CP:  1.10D+00  1.17D+00
 E= -3229.38456876273     Delta-E=       -0.000007620887 Rises=F Damp=F
 DIIS: error= 1.96D-05 at cycle   8 NSaved=   8.
 NSaved= 8 IEnMin= 8 EnMin= -3229.38456876273     IErMin= 8 ErrMin= 1.96D-05
 ErrMax= 1.96D-05  0.00D+00 EMaxC= 1.00D-01 BMatC= 1.31D-06 BMatP= 6.16D-06
 IDIUse=1 WtCom= 1.00D+00 WtEn= 0.00D+00
 Coeff-Com:  0.115D-02-0.238D-02-0.800D-02-0.182D-01-0.271D-01 0.384D-01
 Coeff-Com:  0.362D+00 0.654D+00
 Coeff:      0.115D-02-0.238D-02-0.800D-02-0.182D-01-0.271D-01 0.384D-01
 Coeff:      0.362D+00 0.654D+00
 Gap=     0.137 Goal=   None    Shift=    0.000
 RMSDP=1.12D-06 MaxDP=2.59D-04 DE=-7.62D-06 OVMax= 7.66D-04

 Cycle   9  Pass 1  IDiag  1:
 RMSU=  7.12D-07    CP:  9.75D-01  1.12D+00  9.46D-01  7.14D-01  1.04D+00
                    CP:  1.11D+00  1.28D+00  9.35D-01
 E= -3229.38457066414     Delta-E=       -0.000001901408 Rises=F Damp=F
 DIIS: error= 5.23D-06 at cycle   9 NSaved=   9.
 NSaved= 9 IEnMin= 9 EnMin= -3229.38457066414     IErMin= 9 ErrMin= 5.23D-06
 ErrMax= 5.23D-06  0.00D+00 EMaxC= 1.00D-01 BMatC= 1.48D-07 BMatP= 1.31D-06
 IDIUse=1 WtCom= 1.00D+00 WtEn= 0.00D+00
 Coeff-Com:  0.256D-03-0.450D-03-0.171D-02-0.494D-02-0.122D-01-0.187D-01
 Coeff-Com:  0.414D-01 0.267D+00 0.729D+00
 Coeff:      0.256D-03-0.450D-03-0.171D-02-0.494D-02-0.122D-01-0.187D-01
 Coeff:      0.414D-01 0.267D+00 0.729D+00
 Gap=     0.137 Goal=   None    Shift=    0.000
 RMSDP=6.45D-07 MaxDP=2.19D-04 DE=-1.90D-06 OVMax= 2.14D-04

 Cycle  10  Pass 1  IDiag  1:
 RMSU=  3.07D-07    CP:  9.75D-01  1.12D+00  9.46D-01  7.14D-01  1.04D+00
                    CP:  1.13D+00  1.32D+00  1.10D+00  1.05D+00
 E= -3229.38457088829     Delta-E=       -0.000000224152 Rises=F Damp=F
 DIIS: error= 2.47D-06 at cycle  10 NSaved=  10.
 NSaved=10 IEnMin=10 EnMin= -3229.38457088829     IErMin=10 ErrMin= 2.47D-06
 ErrMax= 2.47D-06  0.00D+00 EMaxC= 1.00D-01 BMatC= 2.39D-08 BMatP= 1.48D-07
 IDIUse=1 WtCom= 1.00D+00 WtEn= 0.00D+00
 Coeff-Com: -0.901D-04 0.218D-03 0.719D-03 0.108D-02-0.474D-03-0.141D-01
 Coeff-Com: -0.523D-01 0.442D-02 0.311D+00 0.749D+00
 Coeff:     -0.901D-04 0.218D-03 0.719D-03 0.108D-02-0.474D-03-0.141D-01
 Coeff:     -0.523D-01 0.442D-02 0.311D+00 0.749D+00
 Gap=     0.137 Goal=   None    Shift=    0.000
 RMSDP=2.29D-07 MaxDP=7.53D-05 DE=-2.24D-07 OVMax= 1.49D-04

 Cycle  11  Pass 1  IDiag  1:
 RMSU=  1.29D-07    CP:  9.75D-01  1.12D+00  9.46D-01  7.14D-01  1.04D+00
                    CP:  1.13D+00  1.33D+00  1.14D+00  1.16D+00  1.12D+00
 E= -3229.38457093159     Delta-E=       -0.000000043299 Rises=F Damp=F
 DIIS: error= 7.03D-07 at cycle  11 NSaved=  11.
 NSaved=11 IEnMin=11 EnMin= -3229.38457093159     IErMin=11 ErrMin= 7.03D-07
 ErrMax= 7.03D-07  0.00D+00 EMaxC= 1.00D-01 BMatC= 3.79D-09 BMatP= 2.39D-08
 IDIUse=1 WtCom= 1.00D+00 WtEn= 0.00D+00
 Coeff-Com: -0.669D-04 0.140D-03 0.515D-03 0.110D-02 0.136D-02-0.340D-02
 Coeff-Com: -0.285D-01-0.316D-01 0.228D-01 0.326D+00 0.712D+00
 Coeff:     -0.669D-04 0.140D-03 0.515D-03 0.110D-02 0.136D-02-0.340D-02
 Coeff:     -0.285D-01-0.316D-01 0.228D-01 0.326D+00 0.712D+00
 Gap=     0.137 Goal=   None    Shift=    0.000
 RMSDP=9.34D-08 MaxDP=3.21D-05 DE=-4.33D-08 OVMax= 4.77D-05

 Cycle  12  Pass 1  IDiag  1:
 RMSU=  4.39D-08    CP:  9.75D-01  1.12D+00  9.46D-01  7.14D-01  1.04D+00
                    CP:  1.13D+00  1.34D+00  1.16D+00  1.20D+00  1.24D+00
                    CP:  1.07D+00
 E= -3229.38457093788     Delta-E=       -0.000000006290 Rises=F Damp=F
 DIIS: error= 3.04D-07 at cycle  12 NSaved=  12.
 NSaved=12 IEnMin=12 EnMin= -3229.38457093788     IErMin=12 ErrMin= 3.04D-07
 ErrMax= 3.04D-07  0.00D+00 EMaxC= 1.00D-01 BMatC= 4.17D-10 BMatP= 3.79D-09
 IDIUse=1 WtCom= 1.00D+00 WtEn= 0.00D+00
 Coeff-Com: -0.114D-04 0.214D-04 0.882D-04 0.251D-03 0.520D-03 0.688D-03
 Coeff-Com: -0.372D-02-0.109D-01-0.364D-01 0.262D-01 0.267D+00 0.756D+00
 Coeff:     -0.114D-04 0.214D-04 0.882D-04 0.251D-03 0.520D-03 0.688D-03
 Coeff:     -0.372D-02-0.109D-01-0.364D-01 0.262D-01 0.267D+00 0.756D+00
 Gap=     0.137 Goal=   None    Shift=    0.000
 RMSDP=2.89D-08 MaxDP=4.85D-06 DE=-6.29D-09 OVMax= 2.38D-05

 Cycle  13  Pass 1  IDiag  1:
 RMSU=  1.88D-08    CP:  9.75D-01  1.12D+00  9.46D-01  7.14D-01  1.04D+00
                    CP:  1.13D+00  1.34D+00  1.16D+00  1.21D+00  1.27D+00
                    CP:  1.16D+00  1.14D+00
 E= -3229.38457093854     Delta-E=       -0.000000000666 Rises=F Damp=F
 DIIS: error= 1.16D-07 at cycle  13 NSaved=  13.
 NSaved=13 IEnMin=13 EnMin= -3229.38457093854     IErMin=13 ErrMin= 1.16D-07
 ErrMax= 1.16D-07  0.00D+00 EMaxC= 1.00D-01 BMatC= 8.41D-11 BMatP= 4.17D-10
 IDIUse=1 WtCom= 1.00D+00 WtEn= 0.00D+00
 Coeff-Com:  0.421D-05-0.980D-05-0.321D-04-0.379D-04 0.438D-04 0.766D-03
 Coeff-Com:  0.221D-02-0.125D-04-0.190D-01-0.337D-01-0.331D-02 0.300D+00
 Coeff-Com:  0.753D+00
 Coeff:      0.421D-05-0.980D-05-0.321D-04-0.379D-04 0.438D-04 0.766D-03
 Coeff:      0.221D-02-0.125D-04-0.190D-01-0.337D-01-0.331D-02 0.300D+00
 Coeff:      0.753D+00
 Gap=     0.137 Goal=   None    Shift=    0.000
 RMSDP=1.59D-08 MaxDP=3.28D-06 DE=-6.66D-10 OVMax= 1.47D-05

 Cycle  14  Pass 1  IDiag  1:
 RMSU=  6.80D-09    CP:  9.75D-01  1.12D+00  9.46D-01  7.14D-01  1.04D+00
                    CP:  1.13D+00  1.34D+00  1.16D+00  1.21D+00  1.29D+00
                    CP:  1.21D+00  1.33D+00  1.33D+00
 E= -3229.38457093857     Delta-E=       -0.000000000029 Rises=F Damp=F
 DIIS: error= 5.90D-08 at cycle  14 NSaved=  14.
 NSaved=14 IEnMin=14 EnMin= -3229.38457093857     IErMin=14 ErrMin= 5.90D-08
 ErrMax= 5.90D-08  0.00D+00 EMaxC= 1.00D-01 BMatC= 1.64D-11 BMatP= 8.41D-11
 IDIUse=1 WtCom= 1.00D+00 WtEn= 0.00D+00
 Coeff-Com:  0.374D-05-0.773D-05-0.301D-04-0.655D-04-0.967D-04 0.108D-03
 Coeff-Com:  0.151D-02 0.265D-02 0.199D-02-0.154D-01-0.639D-01-0.607D-01
 Coeff-Com:  0.256D+00 0.878D+00
 Coeff:      0.374D-05-0.773D-05-0.301D-04-0.655D-04-0.967D-04 0.108D-03
 Coeff:      0.151D-02 0.265D-02 0.199D-02-0.154D-01-0.639D-01-0.607D-01
 Coeff:      0.256D+00 0.878D+00
 Gap=     0.137 Goal=   None    Shift=    0.000
 RMSDP=1.01D-08 MaxDP=1.54D-06 DE=-2.91D-11 OVMax= 1.12D-05

 Cycle  15  Pass 1  IDiag  1:
 RMSU=  3.67D-09    CP:  9.75D-01  1.12D+00  9.46D-01  7.14D-01  1.04D+00
                    CP:  1.13D+00  1.34D+00  1.16D+00  1.21D+00  1.29D+00
                    CP:  1.23D+00  1.44D+00  1.68D+00  1.47D+00
 E= -3229.38457093847     Delta-E=        0.000000000104 Rises=F Damp=F
 DIIS: error= 2.47D-08 at cycle  15 NSaved=  15.
 NSaved=15 IEnMin=14 EnMin= -3229.38457093857     IErMin=15 ErrMin= 2.47D-08
 ErrMax= 2.47D-08  0.00D+00 EMaxC= 1.00D-01 BMatC= 4.83D-12 BMatP= 1.64D-11
 IDIUse=1 WtCom= 1.00D+00 WtEn= 0.00D+00
 Coeff-Com:  0.421D-06-0.610D-06-0.452D-05-0.170D-04-0.554D-04-0.161D-03
 Coeff-Com:  0.765D-04 0.113D-02 0.571D-02 0.182D-02-0.270D-01-0.106D+00
 Coeff-Com: -0.921D-01 0.373D+00 0.843D+00
 Coeff:      0.421D-06-0.610D-06-0.452D-05-0.170D-04-0.554D-04-0.161D-03
 Coeff:      0.765D-04 0.113D-02 0.571D-02 0.182D-02-0.270D-01-0.106D+00
 Coeff:     -0.921D-01 0.373D+00 0.843D+00
 Gap=     0.137 Goal=   None    Shift=    0.000
 RMSDP=6.18D-09 MaxDP=9.49D-07 DE= 1.04D-10 OVMax= 6.77D-06

 Error on total polarization charges =  0.02180
 SCF Done:  E(RM062X) =  -3229.38457094     A.U. after   15 cycles
            NFock= 15  Conv=0.62D-08     -V/T= 2.0050
 KE= 3.213460116196D+03 PE=-2.471135489219D+04 EE= 9.694696950289D+03
 Leave Link  502 at Fri Nov  7 21:07:34 2025, MaxMem= 30870077440 cpu:           94314.0 elap:            1502.1
 (Enter /public/software/gauss/g16/l601.exe)
 Copying SCF densities to generalized density rwf, IOpCl= 0 IROHF=0.

 **********************************************************************

            Population analysis using the SCF density.

 **********************************************************************

 Orbital symmetries:
       Occupied  (A) (A) (A) (A) (A) (A) (A) (A) (A) (A) (A) (A)
                 (A) (A) (A) (A) (A) (A) (A) (A) (A) (A) (A) (A)
                 (A) (A) (A) (A) (A) (A) (A) (A) (A) (A) (A) (A)
                 (A) (A) (A) (A) (A) (A) (A) (A) (A) (A) (A) (A)
                 (A) (A) (A) (A) (A) (A) (A) (A) (A) (A) (A) (A)
                 (A) (A) (A) (A) (A) (A) (A) (A) (A) (A) (A) (A)
                 (A) (A) (A) (A) (A) (A) (A) (A) (A) (A) (A) (A)
                 (A) (A) (A) (A) (A) (A) (A) (A) (A) (A) (A) (A)
                 (A) (A) (A) (A) (A) (A) (A) (A) (A) (A) (A) (A)
                 (A) (A) (A) (A) (A) (A) (A) (A) (A) (A) (A) (A)
                 (A) (A) (A) (A) (A) (A) (A) (A) (A) (A) (A) (A)
                 (A) (A) (A) (A) (A) (A) (A) (A) (A) (A) (A) (A)
                 (A) (A) (A) (A) (A) (A) (A) (A) (A) (A) (A) (A)
                 (A) (A) (A) (A) (A) (A) (A) (A) (A) (A) (A) (A)
                 (A) (A) (A) (A) (A) (A) (A) (A) (A) (A) (A) (A)
                 (A) (A) (A) (A) (A) (A) (A) (A) (A) (A) (A) (A)
                 (A) (A) (A) (A) (A) (A) (A) (A) (A) (A) (A) (A)
                 (A) (A) (A) (A) (A) (A) (A) (A) (A) (A) (A) (A)
                 (A) (A) (A) (A) (A) (A) (A) (A) (A)
       Virtual   (A) (A) (A) (A) (A) (A) (A) (A) (A) (A) (A) (A)
                 (A) (A) (A) (A) (A) (A) (A) (A) (A) (A) (A) (A)
                 (A) (A) (A) (A) (A) (A) (A) (A) (A) (A) (A) (A)
                 (A) (A) (A) (A) (A) (A) (A) (A) (A) (A) (A) (A)
                 (A) (A) (A) (A) (A) (A) (A) (A) (A) (A) (A) (A)
                 (A) (A) (A) (A) (A) (A) (A) (A) (A) (A) (A) (A)
                 (A) (A) (A) (A) (A) (A) (A) (A) (A) (A) (A) (A)
                 (A) (A) (A) (A) (A) (A) (A) (A) (A) (A) (A) (A)
                 (A) (A) (A) (A) (A) (A) (A) (A) (A) (A) (A) (A)
                 (A) (A) (A) (A) (A) (A) (A) (A) (A) (A) (A) (A)
                 (A) (A) (A) (A) (A) (A) (A) (A) (A) (A) (A) (A)
                 (A) (A) (A) (A) (A) (A) (A) (A) (A) (A) (A) (A)
                 (A) (A) (A) (A) (A) (A) (A) (A) (A) (A) (A) (A)
                 (A) (A) (A) (A) (A) (A) (A) (A) (A) (A) (A) (A)
                 (A) (A) (A) (A) (A) (A) (A) (A) (A) (A) (A) (A)
                 (A) (A) (A) (A) (A) (A) (A) (A) (A) (A) (A) (A)
                 (A) (A) (A) (A) (A) (A) (A) (A) (A) (A) (A) (A)
                 (A) (A) (A) (A) (A) (A) (A) (A) (A) (A) (A) (A)
                 (A) (A) (A) (A) (A) (A) (A) (A) (A) (A) (A) (A)
                 (A) (A) (A) (A) (A) (A) (A) (A) (A) (A) (A) (A)
                 (A) (A) (A) (A) (A) (A) (A) (A) (A) (A) (A) (A)
                 (A) (A) (A) (A) (A) (A) (A) (A) (A) (A) (A) (A)
                 (A) (A) (A) (A) (A) (A) (A) (A) (A) (A) (A) (A)
                 (A) (A) (A) (A) (A) (A) (A) (A) (A) (A) (A) (A)
                 (A) (A) (A) (A) (A) (A) (A) (A) (A) (A) (A) (A)
                 (A) (A) (A) (A) (A) (A) (A) (A) (A) (A) (A) (A)
                 (A) (A) (A) (A) (A) (A) (A) (A) (A) (A) (A) (A)
                 (A) (A) (A) (A) (A) (A) (A) (A) (A) (A) (A) (A)
                 (A) (A) (A) (A) (A) (A) (A) (A) (A) (A) (A) (A)
                 (A) (A) (A) (A) (A) (A) (A) (A) (A) (A) (A) (A)
                 (A) (A) (A) (A) (A) (A) (A) (A) (A) (A) (A) (A)
                 (A) (A) (A) (A) (A) (A) (A) (A) (A) (A) (A) (A)
                 (A) (A) (A) (A) (A) (A) (A) (A) (A) (A) (A) (A)
                 (A) (A) (A) (A) (A) (A) (A) (A) (A) (A) (A) (A)
                 (A) (A) (A) (A) (A) (A) (A) (A) (A) (A) (A) (A)
                 (A) (A) (A) (A) (A) (A) (A) (A) (A) (A) (A) (A)
                 (A) (A) (A) (A) (A) (A) (A) (A) (A) (A) (A) (A)
                 (A) (A) (A) (A) (A) (A) (A) (A) (A) (A) (A) (A)
                 (A) (A) (A) (A) (A) (A) (A) (A) (A) (A) (A) (A)
                 (A) (A) (A) (A) (A) (A) (A) (A) (A) (A) (A) (A)
                 (A) (A) (A) (A) (A) (A) (A) (A) (A) (A) (A) (A)
                 (A) (A) (A) (A) (A) (A) (A) (A) (A) (A) (A) (A)
                 (A) (A) (A) (A) (A) (A) (A) (A) (A) (A) (A) (A)
                 (A) (A) (A) (A) (A) (A) (A) (A) (A) (A) (A) (A)
                 (A) (A) (A) (A) (A) (A) (A) (A) (A) (A) (A) (A)
                 (A) (A) (A) (A) (A) (A) (A) (A) (A) (A) (A) (A)
                 (A) (A) (A) (A) (A) (A) (A) (A) (A) (A) (A) (A)
                 (A) (A) (A) (A) (A) (A) (A) (A) (A) (A) (A) (A)
                 (A) (A) (A) (A) (A) (A) (A) (A) (A) (A) (A) (A)
                 (A) (A) (A) (A) (A) (A) (A) (A) (A) (A) (A) (A)
                 (A) (A) (A) (A) (A) (A) (A) (A) (A) (A) (A) (A)
                 (A) (A) (A) (A) (A) (A) (A) (A) (A) (A) (A) (A)
                 (A) (A) (A) (A) (A) (A) (A) (A) (A) (A) (A) (A)
                 (A) (A) (A) (A) (A) (A) (A) (A) (A) (A) (A) (A)
                 (A) (A) (A) (A) (A) (A) (A) (A) (A) (A) (A) (A)
                 (A) (A) (A) (A) (A) (A) (A) (A) (A) (A) (A) (A)
                 (A) (A) (A) (A) (A) (A) (A) (A) (A) (A) (A) (A)
                 (A) (A) (A) (A) (A) (A) (A) (A) (A) (A) (A) (A)
                 (A) (A) (A) (A) (A) (A) (A) (A) (A) (A) (A) (A)
                 (A) (A) (A) (A) (A) (A) (A) (A) (A) (A) (A) (A)
                 (A) (A) (A) (A) (A) (A) (A) (A) (A) (A) (A) (A)
                 (A) (A) (A) (A) (A) (A) (A) (A) (A) (A) (A) (A)
                 (A) (A) (A) (A) (A) (A) (A) (A) (A) (A) (A) (A)
                 (A) (A) (A) (A) (A) (A) (A) (A) (A) (A) (A) (A)
                 (A) (A) (A) (A) (A) (A) (A) (A) (A) (A) (A) (A)
                 (A) (A) (A) (A) (A) (A) (A) (A) (A) (A) (A) (A)
                 (A) (A) (A) (A) (A) (A) (A) (A) (A) (A) (A) (A)
                 (A) (A) (A) (A) (A) (A) (A) (A) (A) (A) (A) (A)
                 (A) (A) (A) (A) (A) (A) (A) (A) (A) (A) (A) (A)
                 (A) (A) (A) (A) (A) (A) (A) (A) (A) (A) (A) (A)
                 (A) (A) (A) (A) (A) (A) (A) (A) (A) (A) (A) (A)
                 (A) (A) (A) (A) (A) (A) (A) (A) (A) (A) (A) (A)
                 (A) (A) (A) (A) (A) (A) (A) (A) (A) (A) (A) (A)
                 (A) (A) (A) (A) (A) (A) (A) (A) (A) (A) (A) (A)
                 (A) (A) (A) (A) (A) (A) (A) (A) (A) (A) (A) (A)
                 (A) (A) (A) (A) (A) (A) (A) (A) (A) (A) (A) (A)
                 (A) (A) (A) (A) (A) (A) (A) (A) (A) (A) (A) (A)
                 (A) (A) (A) (A) (A) (A) (A) (A) (A) (A) (A) (A)
                 (A) (A) (A) (A) (A) (A) (A) (A) (A) (A) (A) (A)
                 (A) (A) (A) (A) (A) (A) (A) (A) (A) (A) (A) (A)
                 (A) (A) (A) (A) (A) (A) (A) (A) (A) (A) (A) (A)
                 (A) (A) (A) (A) (A) (A) (A) (A) (A) (A) (A) (A)
                 (A) (A) (A) (A) (A) (A) (A) (A) (A) (A) (A) (A)
                 (A) (A) (A) (A) (A) (A) (A) (A) (A) (A) (A) (A)
                 (A) (A) (A) (A) (A) (A) (A) (A) (A) (A) (A) (A)
                 (A) (A) (A) (A) (A) (A) (A) (A) (A) (A) (A) (A)
                 (A) (A) (A) (A) (A) (A) (A) (A) (A) (A) (A) (A)
                 (A) (A) (A) (A) (A) (A) (A) (A) (A) (A) (A) (A)
                 (A) (A) (A) (A) (A) (A) (A) (A) (A) (A) (A) (A)
                 (A) (A) (A) (A) (A) (A) (A) (A) (A) (A) (A) (A)
                 (A) (A) (A) (A) (A) (A) (A) (A) (A) (A) (A) (A)
                 (A) (A) (A) (A) (A) (A) (A) (A) (A) (A) (A) (A)
                 (A) (A) (A) (A) (A) (A) (A) (A) (A) (A) (A) (A)
                 (A) (A) (A) (A) (A) (A) (A) (A) (A) (A) (A) (A)
                 (A) (A) (A) (A) (A) (A) (A) (A) (A) (A) (A) (A)
                 (A) (A) (A) (A) (A) (A) (A) (A) (A) (A) (A) (A)
                 (A) (A) (A) (A) (A) (A) (A) (A) (A) (A) (A) (A)
                 (A) (A) (A) (A) (A) (A) (A) (A) (A) (A) (A) (A)
                 (A) (A) (A) (A) (A) (A) (A) (A) (A) (A) (A) (A)
                 (A) (A) (A) (A) (A) (A) (A) (A) (A) (A) (A) (A)
                 (A) (A) (A) (A) (A) (A) (A) (A) (A) (A) (A) (A)
                 (A) (A) (A) (A) (A) (A) (A) (A) (A) (A) (A) (A)
                 (A) (A) (A) (A) (A) (A) (A) (A) (A) (A) (A) (A)
                 (A) (A) (A) (A) (A) (A) (A) (A) (A) (A) (A) (A)
                 (A) (A) (A) (A) (A) (A) (A) (A) (A) (A) (A) (A)
                 (A) (A) (A) (A) (A) (A) (A) (A) (A) (A) (A) (A)
                 (A) (A) (A) (A) (A) (A) (A) (A) (A) (A) (A) (A)
                 (A) (A) (A) (A) (A) (A) (A) (A) (A) (A) (A) (A)
                 (A) (A) (A) (A) (A) (A) (A) (A) (A) (A) (A) (A)
                 (A) (A) (A) (A) (A) (A) (A) (A) (A) (A) (A) (A)
                 (A) (A) (A) (A) (A) (A) (A) (A) (A) (A) (A) (A)
                 (A) (A) (A) (A) (A) (A) (A) (A) (A) (A) (A) (A)
                 (A) (A) (A) (A) (A) (A) (A) (A) (A) (A) (A) (A)
                 (A) (A) (A) (A) (A) (A) (A) (A) (A) (A) (A) (A)
                 (A) (A) (A) (A) (A) (A) (A) (A) (A) (A) (A) (A)
                 (A) (A) (A) (A) (A) (A) (A) (A) (A) (A) (A) (A)
                 (A) (A) (A) (A) (A) (A) (A) (A) (A) (A) (A) (A)
                 (A) (A) (A) (A) (A) (A) (A) (A) (A) (A) (A) (A)
                 (A) (A) (A) (A) (A) (A) (A) (A) (A) (A) (A) (A)
                 (A) (A) (A) (A) (A) (A) (A) (A) (A) (A) (A) (A)
                 (A) (A) (A) (A) (A) (A) (A) (A) (A) (A) (A) (A)
                 (A) (A) (A) (A) (A) (A) (A) (A) (A) (A) (A) (A)
                 (A) (A) (A) (A) (A) (A) (A) (A) (A) (A) (A) (A)
                 (A) (A) (A) (A) (A) (A) (A) (A) (A) (A) (A) (A)
                 (A) (A) (A) (A) (A) (A) (A) (A) (A) (A) (A) (A)
                 (A) (A) (A) (A) (A) (A) (A) (A) (A) (A) (A) (A)
                 (A) (A) (A) (A) (A) (A) (A) (A) (A) (A) (A) (A)
                 (A) (A) (A) (A) (A) (A) (A) (A) (A) (A) (A) (A)
                 (A) (A) (A) (A) (A) (A) (A) (A) (A) (A) (A) (A)
                 (A) (A) (A) (A) (A) (A) (A) (A) (A) (A) (A) (A)
                 (A) (A) (A) (A) (A) (A) (A) (A) (A) (A) (A) (A)
                 (A) (A) (A) (A) (A) (A) (A) (A) (A) (A) (A) (A)
                 (A) (A) (A) (A) (A) (A) (A) (A) (A) (A) (A) (A)
                 (A) (A) (A) (A) (A) (A) (A) (A) (A) (A) (A) (A)
                 (A) (A) (A) (A) (A) (A) (A) (A) (A) (A) (A) (A)
                 (A) (A) (A) (A) (A) (A) (A) (A) (A) (A) (A) (A)
                 (A) (A) (A) (A) (A) (A) (A) (A) (A) (A) (A) (A)
                 (A) (A) (A) (A) (A) (A) (A) (A) (A) (A) (A) (A)
                 (A) (A) (A) (A) (A) (A) (A) (A) (A) (A) (A) (A)
                 (A) (A) (A) (A) (A) (A) (A) (A) (A) (A) (A) (A)
                 (A) (A) (A) (A) (A) (A) (A) (A) (A) (A) (A) (A)
                 (A) (A) (A) (A) (A) (A) (A) (A) (A) (A) (A) (A)
                 (A) (A) (A) (A) (A) (A) (A) (A) (A) (A) (A) (A)
                 (A) (A) (A) (A) (A) (A) (A) (A) (A) (A) (A) (A)
                 (A) (A) (A) (A) (A) (A) (A) (A) (A) (A) (A) (A)
                 (A) (A) (A) (A) (A) (A) (A) (A) (A) (A) (A) (A)
                 (A) (A) (A) (A) (A) (A) (A) (A) (A) (A) (A) (A)
                 (A) (A) (A) (A) (A) (A) (A) (A) (A) (A) (A) (A)
                 (A) (A) (A) (A) (A) (A) (A) (A) (A) (A) (A) (A)
                 (A) (A) (A) (A) (A) (A) (A) (A) (A) (A) (A) (A)
                 (A) (A) (A) (A) (A) (A) (A) (A) (A) (A) (A) (A)
                 (A) (A) (A) (A) (A) (A) (A) (A) (A) (A) (A) (A)
                 (A) (A) (A) (A) (A) (A) (A) (A) (A) (A) (A) (A)
                 (A) (A) (A) (A) (A) (A) (A) (A) (A) (A) (A) (A)
                 (A) (A) (A) (A) (A) (A) (A) (A) (A) (A) (A) (A)
                 (A) (A) (A) (A) (A) (A) (A) (A) (A) (A) (A) (A)
                 (A) (A) (A) (A) (A) (A) (A) (A) (A) (A) (A) (A)
                 (A) (A) (A) (A) (A) (A) (A) (A) (A) (A) (A) (A)
                 (A) (A) (A) (A) (A) (A) (A) (A) (A) (A) (A) (A)
                 (A) (A) (A) (A) (A) (A) (A) (A) (A) (A) (A) (A)
                 (A) (A) (A) (A) (A) (A) (A) (A) (A) (A) (A) (A)
                 (A) (A) (A) (A) (A) (A) (A) (A) (A) (A) (A) (A)
                 (A) (A) (A) (A) (A) (A) (A) (A) (A) (A) (A) (A)
                 (A) (A) (A) (A) (A) (A) (A) (A) (A) (A) (A) (A)
                 (A) (A) (A) (A) (A) (A) (A) (A) (A) (A) (A) (A)
                 (A) (A) (A) (A) (A) (A) (A) (A) (A) (A) (A) (A)
                 (A) (A) (A) (A) (A) (A) (A) (A) (A) (A) (A) (A)
                 (A) (A) (A) (A) (A) (A) (A) (A) (A) (A) (A) (A)
                 (A) (A) (A) (A) (A) (A) (A) (A) (A) (A) (A) (A)
                 (A) (A) (A) (A) (A) (A) (A) (A) (A) (A) (A) (A)
                 (A) (A) (A) (A) (A) (A) (A) (A) (A) (A) (A) (A)
                 (A) (A) (A) (A) (A) (A) (A) (A) (A) (A) (A) (A)
                 (A) (A) (A) (A) (A) (A) (A) (A) (A) (A) (A) (A)
                 (A) (A) (A) (A) (A) (A) (A) (A) (A) (A) (A) (A)
                 (A) (A) (A) (A) (A) (A) (A) (A) (A) (A) (A) (A)
                 (A) (A) (A) (A) (A) (A) (A) (A) (A) (A) (A) (A)
                 (A) (A) (A) (A) (A) (A) (A) (A) (A) (A) (A) (A)
                 (A) (A) (A) (A) (A) (A) (A) (A) (A) (A) (A) (A)
                 (A) (A) (A) (A) (A) (A) (A) (A) (A) (A) (A) (A)
                 (A) (A) (A)
 The electronic state is 1-A.
 Alpha  occ. eigenvalues --  -25.28945 -25.28921 -25.28771 -25.28739 -25.28691
 Alpha  occ. eigenvalues --  -25.28657 -25.28615 -25.28385 -25.28358 -25.21366
 Alpha  occ. eigenvalues --  -25.21332 -19.63673 -19.63671 -14.80134 -14.80018
 Alpha  occ. eigenvalues --  -10.81009 -10.80736 -10.80700 -10.64075 -10.64074
 Alpha  occ. eigenvalues --  -10.62221 -10.62055 -10.61748 -10.60318 -10.60274
 Alpha  occ. eigenvalues --  -10.59122 -10.58888 -10.58340 -10.58329 -10.58311
 Alpha  occ. eigenvalues --  -10.58231 -10.57907 -10.57775 -10.57558 -10.57548
 Alpha  occ. eigenvalues --  -10.57438 -10.57394 -10.57385 -10.57378 -10.57107
 Alpha  occ. eigenvalues --  -10.57072 -10.57055 -10.57017 -10.57007 -10.56991
 Alpha  occ. eigenvalues --  -10.56989 -10.56943 -10.56897 -10.56869 -10.56760
 Alpha  occ. eigenvalues --  -10.56755 -10.56626 -10.56558 -10.56538 -10.56534
 Alpha  occ. eigenvalues --  -10.56530 -10.56465 -10.56458 -10.56443 -10.56241
 Alpha  occ. eigenvalues --  -10.56181 -10.56176 -10.56170  -7.14517  -1.46890
 Alpha  occ. eigenvalues --   -1.46650  -1.46614  -1.38107  -1.37895  -1.37858
 Alpha  occ. eigenvalues --   -1.37736  -1.37485  -1.37453  -1.33348  -1.30166
 Alpha  occ. eigenvalues --   -1.17259  -1.17257  -1.12092  -1.10197  -1.00423
 Alpha  occ. eigenvalues --   -0.99478  -0.99364  -0.98760  -0.98653  -0.95771
 Alpha  occ. eigenvalues --   -0.93514  -0.93245  -0.92551  -0.91894  -0.89840
 Alpha  occ. eigenvalues --   -0.89493  -0.87508  -0.87426  -0.87062  -0.86783
 Alpha  occ. eigenvalues --   -0.86706  -0.86577  -0.86306  -0.86209  -0.83686
 Alpha  occ. eigenvalues --   -0.82824  -0.81143  -0.80335  -0.77759  -0.76735
 Alpha  occ. eigenvalues --   -0.75837  -0.74410  -0.74015  -0.72934  -0.72771
 Alpha  occ. eigenvalues --   -0.72383  -0.72204  -0.71764  -0.71053  -0.69927
 Alpha  occ. eigenvalues --   -0.69743  -0.69696  -0.69494  -0.69464  -0.69003
 Alpha  occ. eigenvalues --   -0.68886  -0.68719  -0.68404  -0.67959  -0.66919
 Alpha  occ. eigenvalues --   -0.66900  -0.66337  -0.66088  -0.65871  -0.65323
 Alpha  occ. eigenvalues --   -0.63787  -0.62638  -0.61904  -0.60171  -0.59727
 Alpha  occ. eigenvalues --   -0.59483  -0.59357  -0.58981  -0.58675  -0.58471
 Alpha  occ. eigenvalues --   -0.58347  -0.58206  -0.58091  -0.58053  -0.57809
 Alpha  occ. eigenvalues --   -0.56950  -0.56435  -0.55947  -0.55752  -0.55469
 Alpha  occ. eigenvalues --   -0.55150  -0.55016  -0.54833  -0.54406  -0.54348
 Alpha  occ. eigenvalues --   -0.54268  -0.54196  -0.53961  -0.53948  -0.53877
 Alpha  occ. eigenvalues --   -0.53730  -0.53614  -0.53315  -0.52894  -0.52743
 Alpha  occ. eigenvalues --   -0.52510  -0.52377  -0.52190  -0.52169  -0.51941
 Alpha  occ. eigenvalues --   -0.51715  -0.51429  -0.51102  -0.51045  -0.50657
 Alpha  occ. eigenvalues --   -0.50550  -0.50453  -0.50353  -0.50235  -0.49910
 Alpha  occ. eigenvalues --   -0.49652  -0.49403  -0.49228  -0.49107  -0.48822
 Alpha  occ. eigenvalues --   -0.48698  -0.47923  -0.47765  -0.47178  -0.47004
 Alpha  occ. eigenvalues --   -0.46813  -0.46606  -0.45766  -0.45299  -0.45022
 Alpha  occ. eigenvalues --   -0.44356  -0.44249  -0.43882  -0.43742  -0.43467
 Alpha  occ. eigenvalues --   -0.43225  -0.42942  -0.42632  -0.41953  -0.41754
 Alpha  occ. eigenvalues --   -0.41665  -0.41596  -0.40584  -0.39364  -0.37286
 Alpha  occ. eigenvalues --   -0.35879  -0.35494  -0.34812  -0.34808  -0.33763
 Alpha  occ. eigenvalues --   -0.33672  -0.33243  -0.33166  -0.32993  -0.32917
 Alpha  occ. eigenvalues --   -0.32724  -0.31023  -0.30596  -0.29160  -0.24945
 Alpha virt. eigenvalues --   -0.11246  -0.05911  -0.05736  -0.04060  -0.03168
 Alpha virt. eigenvalues --   -0.01581  -0.00670  -0.00143  -0.00063   0.00257
 Alpha virt. eigenvalues --    0.00270   0.02874   0.03288   0.05074   0.06266
 Alpha virt. eigenvalues --    0.06565   0.06910   0.07244   0.07664   0.08147
 Alpha virt. eigenvalues --    0.08672   0.08889   0.08924   0.09378   0.09633
 Alpha virt. eigenvalues --    0.09884   0.09925   0.10258   0.10482   0.10846
 Alpha virt. eigenvalues --    0.10907   0.11351   0.11699   0.11817   0.11985
 Alpha virt. eigenvalues --    0.12283   0.12349   0.12389   0.12771   0.13031
 Alpha virt. eigenvalues --    0.13280   0.13356   0.13600   0.13772   0.14215
 Alpha virt. eigenvalues --    0.14487   0.14649   0.14987   0.15273   0.15417
 Alpha virt. eigenvalues --    0.15649   0.15824   0.16325   0.16537   0.16600
 Alpha virt. eigenvalues --    0.16824   0.16911   0.16959   0.17283   0.17358
 Alpha virt. eigenvalues --    0.17572   0.17854   0.18364   0.18374   0.18480
 Alpha virt. eigenvalues --    0.18636   0.18689   0.18860   0.19084   0.19177
 Alpha virt. eigenvalues --    0.19301   0.19673   0.19821   0.20249   0.20290
 Alpha virt. eigenvalues --    0.20763   0.20936   0.21282   0.21409   0.21503
 Alpha virt. eigenvalues --    0.21694   0.21788   0.22029   0.22182   0.22560
 Alpha virt. eigenvalues --    0.22720   0.23038   0.23333   0.23435   0.23624
 Alpha virt. eigenvalues --    0.23820   0.24113   0.24286   0.24579   0.24659
 Alpha virt. eigenvalues --    0.24929   0.25133   0.25293   0.25533   0.25704
 Alpha virt. eigenvalues --    0.25826   0.26001   0.26292   0.26376   0.26573
 Alpha virt. eigenvalues --    0.26767   0.26809   0.26963   0.27102   0.27298
 Alpha virt. eigenvalues --    0.27378   0.27690   0.27741   0.27983   0.28052
 Alpha virt. eigenvalues --    0.28164   0.28354   0.28508   0.28532   0.28843
 Alpha virt. eigenvalues --    0.28965   0.29101   0.29202   0.29318   0.29377
 Alpha virt. eigenvalues --    0.29505   0.29691   0.29815   0.29946   0.30091
 Alpha virt. eigenvalues --    0.30218   0.30530   0.30807   0.30816   0.31027
 Alpha virt. eigenvalues --    0.31187   0.31256   0.31372   0.31538   0.31655
 Alpha virt. eigenvalues --    0.31929   0.32053   0.32238   0.32419   0.32652
 Alpha virt. eigenvalues --    0.32778   0.32919   0.33185   0.33328   0.33659
 Alpha virt. eigenvalues --    0.33828   0.34012   0.34047   0.34263   0.34441
 Alpha virt. eigenvalues --    0.34895   0.34985   0.35345   0.35370   0.35550
 Alpha virt. eigenvalues --    0.35915   0.36081   0.36169   0.36321   0.36357
 Alpha virt. eigenvalues --    0.36538   0.36865   0.37062   0.37320   0.37391
 Alpha virt. eigenvalues --    0.37729   0.37948   0.38030   0.38275   0.38350
 Alpha virt. eigenvalues --    0.38539   0.38697   0.38883   0.39072   0.39220
 Alpha virt. eigenvalues --    0.39358   0.39526   0.39607   0.39785   0.39941
 Alpha virt. eigenvalues --    0.40266   0.40530   0.40585   0.40728   0.41088
 Alpha virt. eigenvalues --    0.41243   0.41374   0.41444   0.41668   0.41752
 Alpha virt. eigenvalues --    0.41927   0.42087   0.42240   0.42449   0.42517
 Alpha virt. eigenvalues --    0.42856   0.43102   0.43143   0.43336   0.43606
 Alpha virt. eigenvalues --    0.43866   0.44038   0.44163   0.44365   0.44469
 Alpha virt. eigenvalues --    0.44553   0.44823   0.44978   0.45249   0.45519
 Alpha virt. eigenvalues --    0.45707   0.45859   0.45884   0.46084   0.46118
 Alpha virt. eigenvalues --    0.46286   0.46731   0.46770   0.46943   0.47221
 Alpha virt. eigenvalues --    0.47338   0.47910   0.48124   0.48284   0.48613
 Alpha virt. eigenvalues --    0.48877   0.49002   0.49341   0.49444   0.49727
 Alpha virt. eigenvalues --    0.49862   0.49896   0.50158   0.50399   0.50647
 Alpha virt. eigenvalues --    0.50932   0.51011   0.51257   0.51442   0.51650
 Alpha virt. eigenvalues --    0.51856   0.52191   0.52222   0.52306   0.52712
 Alpha virt. eigenvalues --    0.52892   0.53056   0.53322   0.53606   0.53699
 Alpha virt. eigenvalues --    0.53759   0.54056   0.54101   0.54419   0.54661
 Alpha virt. eigenvalues --    0.54845   0.55197   0.55313   0.55693   0.55801
 Alpha virt. eigenvalues --    0.55897   0.56179   0.56310   0.56591   0.56931
 Alpha virt. eigenvalues --    0.57186   0.57208   0.57683   0.57739   0.58121
 Alpha virt. eigenvalues --    0.58216   0.58389   0.58559   0.58584   0.58835
 Alpha virt. eigenvalues --    0.59072   0.59295   0.59542   0.59766   0.60056
 Alpha virt. eigenvalues --    0.60086   0.60603   0.60751   0.61029   0.61300
 Alpha virt. eigenvalues --    0.61779   0.61935   0.62213   0.62504   0.62671
 Alpha virt. eigenvalues --    0.63034   0.63215   0.63525   0.63674   0.63990
 Alpha virt. eigenvalues --    0.64373   0.64556   0.64727   0.64918   0.65211
 Alpha virt. eigenvalues --    0.65349   0.65774   0.65913   0.65995   0.66232
 Alpha virt. eigenvalues --    0.66491   0.66915   0.67103   0.67153   0.67324
 Alpha virt. eigenvalues --    0.67418   0.67510   0.67744   0.68029   0.68155
 Alpha virt. eigenvalues --    0.68196   0.68495   0.68803   0.68974   0.68986
 Alpha virt. eigenvalues --    0.69234   0.69278   0.69513   0.69748   0.69903
 Alpha virt. eigenvalues --    0.70238   0.70412   0.70520   0.70703   0.70891
 Alpha virt. eigenvalues --    0.70916   0.71140   0.71179   0.71340   0.71549
 Alpha virt. eigenvalues --    0.71925   0.72036   0.72128   0.72404   0.72535
 Alpha virt. eigenvalues --    0.72701   0.72812   0.72953   0.73157   0.73290
 Alpha virt. eigenvalues --    0.73317   0.73677   0.74001   0.74192   0.74332
 Alpha virt. eigenvalues --    0.74454   0.74585   0.74753   0.75066   0.75157
 Alpha virt. eigenvalues --    0.75398   0.75511   0.75922   0.75992   0.76079
 Alpha virt. eigenvalues --    0.76567   0.76703   0.77078   0.77166   0.77620
 Alpha virt. eigenvalues --    0.77753   0.77938   0.78163   0.78345   0.78498
 Alpha virt. eigenvalues --    0.78586   0.78813   0.78963   0.79173   0.79510
 Alpha virt. eigenvalues --    0.79871   0.79917   0.79964   0.80081   0.80289
 Alpha virt. eigenvalues --    0.80806   0.80831   0.81310   0.81603   0.81710
 Alpha virt. eigenvalues --    0.81876   0.82036   0.82193   0.82396   0.82508
 Alpha virt. eigenvalues --    0.82822   0.82920   0.83131   0.83241   0.83467
 Alpha virt. eigenvalues --    0.83623   0.83728   0.83964   0.84315   0.84362
 Alpha virt. eigenvalues --    0.84520   0.84663   0.84871   0.85165   0.85231
 Alpha virt. eigenvalues --    0.85364   0.85470   0.85724   0.85832   0.86347
 Alpha virt. eigenvalues --    0.86633   0.86834   0.87244   0.87360   0.87506
 Alpha virt. eigenvalues --    0.87763   0.87835   0.88236   0.88515   0.88726
 Alpha virt. eigenvalues --    0.89016   0.89298   0.89418   0.89544   0.89986
 Alpha virt. eigenvalues --    0.90164   0.90427   0.90566   0.90738   0.90954
 Alpha virt. eigenvalues --    0.91000   0.91147   0.91729   0.91807   0.91923
 Alpha virt. eigenvalues --    0.92246   0.92626   0.92976   0.93142   0.93247
 Alpha virt. eigenvalues --    0.93413   0.93770   0.94046   0.94194   0.94519
 Alpha virt. eigenvalues --    0.94600   0.95103   0.95348   0.95481   0.95505
 Alpha virt. eigenvalues --    0.95732   0.95883   0.96408   0.96671   0.97237
 Alpha virt. eigenvalues --    0.97479   0.97663   0.97953   0.98250   0.98607
 Alpha virt. eigenvalues --    0.98739   0.98929   0.99390   0.99498   0.99678
 Alpha virt. eigenvalues --    0.99794   0.99999   1.00105   1.00380   1.00634
 Alpha virt. eigenvalues --    1.00748   1.00915   1.01044   1.01082   1.01488
 Alpha virt. eigenvalues --    1.01528   1.01850   1.01993   1.02404   1.02432
 Alpha virt. eigenvalues --    1.02634   1.02912   1.03083   1.03137   1.03373
 Alpha virt. eigenvalues --    1.03834   1.04017   1.04201   1.04414   1.04487
 Alpha virt. eigenvalues --    1.04660   1.04818   1.05140   1.05448   1.05536
 Alpha virt. eigenvalues --    1.05918   1.06052   1.06470   1.06805   1.07192
 Alpha virt. eigenvalues --    1.07552   1.07703   1.08272   1.08392   1.08582
 Alpha virt. eigenvalues --    1.08975   1.09187   1.09353   1.09644   1.09955
 Alpha virt. eigenvalues --    1.10251   1.10960   1.11121   1.11348   1.11477
 Alpha virt. eigenvalues --    1.11815   1.12124   1.12669   1.12725   1.12915
 Alpha virt. eigenvalues --    1.13182   1.13567   1.14010   1.14075   1.14270
 Alpha virt. eigenvalues --    1.14527   1.15090   1.15329   1.15491   1.15660
 Alpha virt. eigenvalues --    1.15791   1.16022   1.16393   1.16714   1.17224
 Alpha virt. eigenvalues --    1.17690   1.18058   1.18171   1.18236   1.18290
 Alpha virt. eigenvalues --    1.18895   1.18977   1.19350   1.19477   1.20048
 Alpha virt. eigenvalues --    1.20453   1.20610   1.20829   1.21098   1.21238
 Alpha virt. eigenvalues --    1.21474   1.21701   1.22079   1.22703   1.22872
 Alpha virt. eigenvalues --    1.23051   1.23281   1.23447   1.24032   1.24161
 Alpha virt. eigenvalues --    1.24315   1.24471   1.24835   1.25059   1.25181
 Alpha virt. eigenvalues --    1.25558   1.25616   1.25722   1.25933   1.26482
 Alpha virt. eigenvalues --    1.26661   1.26875   1.27208   1.27529   1.27699
 Alpha virt. eigenvalues --    1.27838   1.28224   1.28416   1.28660   1.28854
 Alpha virt. eigenvalues --    1.29181   1.29261   1.29899   1.30022   1.30260
 Alpha virt. eigenvalues --    1.30483   1.30827   1.30950   1.31216   1.31425
 Alpha virt. eigenvalues --    1.31458   1.31936   1.32035   1.32371   1.32499
 Alpha virt. eigenvalues --    1.32798   1.32955   1.33338   1.33588   1.34153
 Alpha virt. eigenvalues --    1.34552   1.34671   1.35106   1.35392   1.35411
 Alpha virt. eigenvalues --    1.36016   1.36225   1.36360   1.36485   1.37064
 Alpha virt. eigenvalues --    1.37258   1.37689   1.37968   1.37988   1.38758
 Alpha virt. eigenvalues --    1.38833   1.38931   1.39013   1.39129   1.39527
 Alpha virt. eigenvalues --    1.39778   1.39875   1.40081   1.40242   1.40409
 Alpha virt. eigenvalues --    1.40715   1.40892   1.41072   1.41423   1.41739
 Alpha virt. eigenvalues --    1.41925   1.42186   1.42492   1.42705   1.43102
 Alpha virt. eigenvalues --    1.43533   1.43752   1.43865   1.44581   1.44900
 Alpha virt. eigenvalues --    1.44992   1.45438   1.45802   1.46379   1.46686
 Alpha virt. eigenvalues --    1.46960   1.47325   1.47517   1.47756   1.47836
 Alpha virt. eigenvalues --    1.48044   1.48484   1.48800   1.48981   1.49428
 Alpha virt. eigenvalues --    1.49968   1.50066   1.50367   1.50840   1.51047
 Alpha virt. eigenvalues --    1.51344   1.51644   1.52002   1.52169   1.52423
 Alpha virt. eigenvalues --    1.52560   1.52609   1.52987   1.53430   1.53480
 Alpha virt. eigenvalues --    1.53832   1.53919   1.54324   1.54516   1.54627
 Alpha virt. eigenvalues --    1.55231   1.55539   1.55885   1.56231   1.56487
 Alpha virt. eigenvalues --    1.56844   1.56926   1.57248   1.57508   1.57749
 Alpha virt. eigenvalues --    1.57833   1.57914   1.58134   1.58592   1.58757
 Alpha virt. eigenvalues --    1.58943   1.59337   1.59413   1.59649   1.59780
 Alpha virt. eigenvalues --    1.60261   1.60515   1.60693   1.60923   1.61228
 Alpha virt. eigenvalues --    1.61482   1.62054   1.62352   1.62738   1.62783
 Alpha virt. eigenvalues --    1.63079   1.63392   1.63721   1.63964   1.64345
 Alpha virt. eigenvalues --    1.64783   1.65109   1.65394   1.65579   1.65767
 Alpha virt. eigenvalues --    1.66050   1.66123   1.66593   1.66951   1.67200
 Alpha virt. eigenvalues --    1.67353   1.67603   1.67984   1.68153   1.68916
 Alpha virt. eigenvalues --    1.68962   1.69047   1.69089   1.69797   1.70302
 Alpha virt. eigenvalues --    1.70773   1.70974   1.71182   1.71349   1.71671
 Alpha virt. eigenvalues --    1.71734   1.72063   1.72472   1.72621   1.73334
 Alpha virt. eigenvalues --    1.73531   1.73935   1.74243   1.74834   1.75070
 Alpha virt. eigenvalues --    1.75948   1.76270   1.76490   1.76731   1.77036
 Alpha virt. eigenvalues --    1.77182   1.77563   1.77679   1.78088   1.78640
 Alpha virt. eigenvalues --    1.78696   1.79067   1.79288   1.79849   1.80048
 Alpha virt. eigenvalues --    1.80581   1.81122   1.81332   1.81683   1.82691
 Alpha virt. eigenvalues --    1.82922   1.83267   1.83360   1.83537   1.83795
 Alpha virt. eigenvalues --    1.84140   1.84457   1.85131   1.85707   1.86498
 Alpha virt. eigenvalues --    1.86885   1.87048   1.87346   1.87848   1.88079
 Alpha virt. eigenvalues --    1.88519   1.88655   1.88924   1.89117   1.89626
 Alpha virt. eigenvalues --    1.89755   1.90091   1.90389   1.90544   1.90783
 Alpha virt. eigenvalues --    1.91497   1.91742   1.91867   1.92010   1.92619
 Alpha virt. eigenvalues --    1.92897   1.93177   1.93290   1.93750   1.93901
 Alpha virt. eigenvalues --    1.94244   1.94323   1.95257   1.95328   1.95852
 Alpha virt. eigenvalues --    1.95979   1.96506   1.96737   1.97661   1.97930
 Alpha virt. eigenvalues --    1.97947   1.98279   1.98759   1.99029   1.99769
 Alpha virt. eigenvalues --    1.99937   2.00040   2.00332   2.00363   2.00587
 Alpha virt. eigenvalues --    2.00868   2.01063   2.01578   2.01685   2.02215
 Alpha virt. eigenvalues --    2.02463   2.02905   2.03044   2.03306   2.03713
 Alpha virt. eigenvalues --    2.04372   2.04733   2.04831   2.05062   2.05457
 Alpha virt. eigenvalues --    2.05628   2.05862   2.06139   2.06161   2.06717
 Alpha virt. eigenvalues --    2.07217   2.07494   2.07605   2.07872   2.08175
 Alpha virt. eigenvalues --    2.08412   2.08843   2.09224   2.09368   2.09535
 Alpha virt. eigenvalues --    2.10104   2.10362   2.10723   2.10955   2.10974
 Alpha virt. eigenvalues --    2.11229   2.11349   2.11820   2.12088   2.12390
 Alpha virt. eigenvalues --    2.12766   2.12870   2.13120   2.13602   2.13899
 Alpha virt. eigenvalues --    2.14503   2.14625   2.15412   2.15849   2.16068
 Alpha virt. eigenvalues --    2.16322   2.16352   2.16540   2.17559   2.18021
 Alpha virt. eigenvalues --    2.18358   2.18810   2.19586   2.19867   2.20181
 Alpha virt. eigenvalues --    2.20373   2.20812   2.21162   2.21669   2.21855
 Alpha virt. eigenvalues --    2.22072   2.22703   2.23628   2.24108   2.24747
 Alpha virt. eigenvalues --    2.25013   2.25384   2.25618   2.26030   2.26163
 Alpha virt. eigenvalues --    2.26356   2.26574   2.27359   2.27482   2.28030
 Alpha virt. eigenvalues --    2.28242   2.28902   2.29382   2.30426   2.30737
 Alpha virt. eigenvalues --    2.30974   2.31744   2.31815   2.32244   2.32386
 Alpha virt. eigenvalues --    2.32898   2.33031   2.33270   2.33783   2.33926
 Alpha virt. eigenvalues --    2.34447   2.34595   2.35301   2.35480   2.35876
 Alpha virt. eigenvalues --    2.35959   2.36401   2.36495   2.36790   2.36891
 Alpha virt. eigenvalues --    2.37133   2.37471   2.37679   2.38162   2.38506
 Alpha virt. eigenvalues --    2.39021   2.39169   2.39824   2.40099   2.40199
 Alpha virt. eigenvalues --    2.40357   2.40436   2.40606   2.40941   2.40992
 Alpha virt. eigenvalues --    2.41282   2.41697   2.41816   2.42197   2.42543
 Alpha virt. eigenvalues --    2.43221   2.43742   2.44162   2.44596   2.45075
 Alpha virt. eigenvalues --    2.45383   2.45500   2.46204   2.46763   2.47310
 Alpha virt. eigenvalues --    2.49120   2.49631   2.50298   2.50928   2.51580
 Alpha virt. eigenvalues --    2.51920   2.52486   2.52875   2.53334   2.53788
 Alpha virt. eigenvalues --    2.53946   2.54236   2.54403   2.54708   2.55512
 Alpha virt. eigenvalues --    2.56388   2.56587   2.56964   2.57409   2.58131
 Alpha virt. eigenvalues --    2.58293   2.58359   2.58526   2.58905   2.59270
 Alpha virt. eigenvalues --    2.59349   2.59596   2.60091   2.61304   2.62090
 Alpha virt. eigenvalues --    2.62599   2.63017   2.63818   2.64063   2.64317
 Alpha virt. eigenvalues --    2.64528   2.64989   2.65121   2.65242   2.65693
 Alpha virt. eigenvalues --    2.65894   2.66534   2.66994   2.67187   2.67583
 Alpha virt. eigenvalues --    2.68014   2.68358   2.68547   2.68731   2.69264
 Alpha virt. eigenvalues --    2.69554   2.69717   2.69962   2.70280   2.70529
 Alpha virt. eigenvalues --    2.70740   2.71609   2.71828   2.72126   2.72360
 Alpha virt. eigenvalues --    2.72836   2.73098   2.73260   2.73739   2.73997
 Alpha virt. eigenvalues --    2.74307   2.74354   2.74562   2.74664   2.74995
 Alpha virt. eigenvalues --    2.75555   2.75692   2.75819   2.76131   2.76578
 Alpha virt. eigenvalues --    2.76702   2.77082   2.77154   2.77359   2.77817
 Alpha virt. eigenvalues --    2.78562   2.78674   2.79091   2.79216   2.79482
 Alpha virt. eigenvalues --    2.79704   2.79897   2.80071   2.80374   2.80690
 Alpha virt. eigenvalues --    2.81260   2.81309   2.81388   2.81721   2.81994
 Alpha virt. eigenvalues --    2.82288   2.82356   2.82709   2.82802   2.82921
 Alpha virt. eigenvalues --    2.83085   2.83334   2.83437   2.83731   2.83932
 Alpha virt. eigenvalues --    2.84011   2.84174   2.84364   2.84451   2.84787
 Alpha virt. eigenvalues --    2.84837   2.85307   2.85383   2.85789   2.86018
[...]
 Alpha virt. eigenvalues --    3.88762   3.89004   3.89130   3.89236   3.89427
 Alpha virt. eigenvalues --    3.89831   3.89918   3.90028   3.90614   3.90835
 Alpha virt. eigenvalues --    3.91096   3.91547   3.91620   3.91780   3.92056
 Alpha virt. eigenvalues --    3.92332   3.92652   3.92780   3.93178   3.93597
 Alpha virt. eigenvalues --    3.93936   3.94205   3.94592   3.94961   3.95216
 Alpha virt. eigenvalues --    3.95565   3.95622   3.96347   3.96564   3.96839
 Alpha virt. eigenvalues --    3.96990   3.97280   3.97586   3.97970   3.98555
 Alpha virt. eigenvalues --    3.98597   3.98807   3.98887   3.99005   3.99267
 Alpha virt. eigenvalues --    3.99379   3.99605   3.99724   3.99949   4.00235
 Alpha virt. eigenvalues --    4.00444   4.00671   4.00940   4.01207   4.01732
 Alpha virt. eigenvalues --    4.01998   4.02014   4.02464   4.02959   4.03089
 Alpha virt. eigenvalues --    4.03565   4.03988   4.04594   4.04818   4.05127
 Alpha virt. eigenvalues --    4.05670   4.06045   4.06216   4.06554   4.06738
 Alpha virt. eigenvalues --    4.06981   4.07045   4.07630   4.07878   4.08060
 Alpha virt. eigenvalues --    4.08385   4.08794   4.08859   4.09077   4.09505
 Alpha virt. eigenvalues --    4.10353   4.10397   4.11287   4.11370   4.11554
 Alpha virt. eigenvalues --    4.12006   4.12333   4.12554   4.12997   4.13444
 Alpha virt. eigenvalues --    4.13545   4.13664   4.13846   4.14175   4.14345
 Alpha virt. eigenvalues --    4.14738   4.14848   4.15300   4.15350   4.15782
 Alpha virt. eigenvalues --    4.16151   4.16331   4.16642   4.16793   4.16920
 Alpha virt. eigenvalues --    4.17006   4.17217   4.17321   4.17825   4.18027
 Alpha virt. eigenvalues --    4.19050   4.19129   4.19224   4.19598   4.19729
 Alpha virt. eigenvalues --    4.20047   4.20096   4.20227   4.20620   4.20939
 Alpha virt. eigenvalues --    4.21095   4.21445   4.21758   4.21966   4.22012
 Alpha virt. eigenvalues --    4.22360   4.22795   4.22982   4.23087   4.23455
 Alpha virt. eigenvalues --    4.23695   4.24122   4.24202   4.24519   4.24895
 Alpha virt. eigenvalues --    4.25140   4.25420   4.25813   4.26166   4.26304
 Alpha virt. eigenvalues --    4.26541   4.26848   4.26941   4.27136   4.27305
 Alpha virt. eigenvalues --    4.27663   4.27911   4.28468   4.29146   4.29507
 Alpha virt. eigenvalues --    4.29621   4.29975   4.30390   4.30555   4.30903
 Alpha virt. eigenvalues --    4.31339   4.31576   4.31670   4.31996   4.32186
 Alpha virt. eigenvalues --    4.32373   4.32867   4.33199   4.33335   4.33825
 Alpha virt. eigenvalues --    4.34120   4.34273   4.34879   4.34984   4.35665
 Alpha virt. eigenvalues --    4.36384   4.37100   4.37217   4.38113   4.38813
 Alpha virt. eigenvalues --    4.39123   4.39995   4.40509   4.40815   4.41092
 Alpha virt. eigenvalues --    4.41382   4.41483   4.42102   4.42501   4.42869
 Alpha virt. eigenvalues --    4.43066   4.43740   4.44340   4.44498   4.45692
 Alpha virt. eigenvalues --    4.46928   4.47543   4.47672   4.48071   4.48609
 Alpha virt. eigenvalues --    4.48985   4.49246   4.49713   4.50431   4.51227
 Alpha virt. eigenvalues --    4.51658   4.51869   4.52453   4.53071   4.53569
 Alpha virt. eigenvalues --    4.53996   4.54088   4.55382   4.55605   4.55927
 Alpha virt. eigenvalues --    4.56345   4.56733   4.57412   4.58015   4.58287
 Alpha virt. eigenvalues --    4.59040   4.59068   4.59939   4.60442   4.60763
 Alpha virt. eigenvalues --    4.61477   4.62041   4.62120   4.62355   4.62813
 Alpha virt. eigenvalues --    4.63526   4.64663   4.65003   4.66048   4.66465
 Alpha virt. eigenvalues --    4.66879   4.67490   4.67874   4.68033   4.68387
 Alpha virt. eigenvalues --    4.68661   4.69197   4.69451   4.69724   4.69840
 Alpha virt. eigenvalues --    4.70075   4.70251   4.70462   4.70613   4.70743
 Alpha virt. eigenvalues --    4.70980   4.71263   4.71458   4.71544   4.72228
 Alpha virt. eigenvalues --    4.72479   4.72592   4.73468   4.73909   4.74448
 Alpha virt. eigenvalues --    4.76804   4.77337   4.78115   4.79098   4.79370
 Alpha virt. eigenvalues --    4.81520   4.81976   4.82837   4.83524   4.84523
 Alpha virt. eigenvalues --    4.85194   4.86075   4.86531   4.87069   4.87344
 Alpha virt. eigenvalues --    4.87731   4.87822   4.88420   4.88673   4.88745
 Alpha virt. eigenvalues --    4.89773   4.90315   4.90567   4.90977   4.91520
 Alpha virt. eigenvalues --    4.92436   4.93095   4.93109   4.93331   4.93356
 Alpha virt. eigenvalues --    4.93608   4.93796   4.93981   4.94171   4.94392
 Alpha virt. eigenvalues --    4.94690   4.94830   4.95365   4.95533   4.96042
 Alpha virt. eigenvalues --    4.96168   4.96371   4.96529   4.97007   4.98038
 Alpha virt. eigenvalues --    4.98452   4.98750   4.99624   4.99709   4.99817
 Alpha virt. eigenvalues --    5.00784   5.00995   5.02562   5.03253   5.04269
 Alpha virt. eigenvalues --    5.05637   5.05717   5.06119   5.06271   5.07234
 Alpha virt. eigenvalues --    5.07829   5.08628   5.09159   5.09739   5.09860
 Alpha virt. eigenvalues --    5.10302   5.10546   5.10633   5.10887   5.11501
 Alpha virt. eigenvalues --    5.11866   5.14492   5.15530   5.16344   5.17225
 Alpha virt. eigenvalues --    5.18211   5.18754   5.19354   5.19783   5.20247
 Alpha virt. eigenvalues --    5.20381   5.20573   5.21234   5.21960   5.22439
 Alpha virt. eigenvalues --    5.22969   5.23063   5.23667   5.23714   5.24443
 Alpha virt. eigenvalues --    5.25225   5.25341   5.25701   5.27058   5.27482
 Alpha virt. eigenvalues --    5.27569   5.27983   5.28622   5.29276   5.29637
 Alpha virt. eigenvalues --    5.30880   5.31715   5.32066   5.32632   5.33283
 Alpha virt. eigenvalues --    5.33471   5.33924   5.34320   5.34641   5.36039
 Alpha virt. eigenvalues --    5.36694   5.37435   5.37931   5.38143   5.38953
 Alpha virt. eigenvalues --    5.39564   5.39601   5.40349   5.40466   5.40870
 Alpha virt. eigenvalues --    5.41211   5.42431   5.43652   5.44637   5.45514
 Alpha virt. eigenvalues --    5.46040   5.47185   5.47667   5.49263   5.50091
 Alpha virt. eigenvalues --    5.51263   5.52616   5.52784   5.53134   5.53477
 Alpha virt. eigenvalues --    5.54568   5.56094   5.57514   5.59223   5.59904
 Alpha virt. eigenvalues --    5.60441   5.60793   5.61057   5.61383   5.61588
 Alpha virt. eigenvalues --    5.61797   5.61917   5.62000   5.62053   5.62238
 Alpha virt. eigenvalues --    5.62975   5.63031   5.65285   5.66098   5.67712
 Alpha virt. eigenvalues --    5.68379   5.69543   5.70129   5.71903   5.72091
 Alpha virt. eigenvalues --    5.73853   5.74470   5.75243   5.75544   5.76744
 Alpha virt. eigenvalues --    5.77234   5.78395   5.79788   5.81101   5.82415
 Alpha virt. eigenvalues --    5.82970   5.83333   5.85979   5.86935   5.87111
 Alpha virt. eigenvalues --    5.89321   5.95402   5.97953   5.99612   6.00124
 Alpha virt. eigenvalues --    6.05104   6.05703   6.05728   6.10314   6.10753
 Alpha virt. eigenvalues --    6.10904   6.11933   6.12043   6.13627   6.21743
 Alpha virt. eigenvalues --    6.23588   6.29533   6.34355   6.36129   6.36137
 Alpha virt. eigenvalues --    6.39562   6.42914   6.45624   6.52244   6.53052
 Alpha virt. eigenvalues --    6.55745   6.55991   6.77505   6.77519   6.82803
 Alpha virt. eigenvalues --    6.83011   6.83037   6.84307   6.84479   6.87436
 Alpha virt. eigenvalues --    6.87598   6.87626   6.87650   6.87847   6.87875
 Alpha virt. eigenvalues --    6.87904   6.87969   6.88107   6.88131   6.88184
 Alpha virt. eigenvalues --    6.88210   6.88842   6.88909   6.89016   6.89034
 Alpha virt. eigenvalues --    6.89169   6.89198   6.89371   6.89679   6.89687
 Alpha virt. eigenvalues --    6.90185   6.90387   6.90417   6.93264   6.94708
 Alpha virt. eigenvalues --    6.96270   6.97955   6.98160   6.98173   6.98433
 Alpha virt. eigenvalues --    6.98862   7.00131   7.00264   7.00274   7.00288
 Alpha virt. eigenvalues --    7.00431   7.00885   7.00935   7.03630   7.03655
 Alpha virt. eigenvalues --    7.04519   7.05608   7.05704   7.05719   7.07163
 Alpha virt. eigenvalues --    7.07473   7.07509   7.08201   7.08234   7.10511
 Alpha virt. eigenvalues --    7.13140   7.13284   7.13304   7.16616   7.21642
 Alpha virt. eigenvalues --    7.23759   7.27058   7.33226   7.33611   7.33622
 Alpha virt. eigenvalues --    7.33634   7.34253   7.34563   7.34667   7.34675
 Alpha virt. eigenvalues --    7.40166   7.40518   7.40545   7.47194   7.47264
 Alpha virt. eigenvalues --    7.47467   7.55809   7.55822   7.55848   7.56917
 Alpha virt. eigenvalues --    7.57056   7.57068   8.29121   8.29227   8.29243
 Alpha virt. eigenvalues --    8.30926   8.31214   8.31228   8.32748   8.32959
 Alpha virt. eigenvalues --    8.32966   8.45793   8.45940   8.46062   8.46075
 Alpha virt. eigenvalues --    8.46236   8.46557   8.46586   8.48198   8.55415
 Alpha virt. eigenvalues --    8.55926   8.55939   8.56004   8.60575   8.67002
 Alpha virt. eigenvalues --    8.67020   8.67034   8.74202   8.74247   8.74251
 Alpha virt. eigenvalues --    8.74862   8.74922   8.74937   8.83333   8.85438
 Alpha virt. eigenvalues --    8.85632   8.85662   8.87390   8.91504   8.91610
 Alpha virt. eigenvalues --    8.91690   8.91722   8.92690   8.92981   8.98521
 Alpha virt. eigenvalues --    8.98715   8.98747   8.99548   8.99636   8.99856
 Alpha virt. eigenvalues --    8.99894   9.05734   9.05738   9.05974   9.10547
 Alpha virt. eigenvalues --    9.10921   9.10924  15.83753  22.76368  22.80798
 Alpha virt. eigenvalues --   22.81520  22.84190  22.84532  22.84924  22.87418
 Alpha virt. eigenvalues --   22.88702  22.93635  22.97797  23.10314  23.14356
 Alpha virt. eigenvalues --   23.14566  23.17275  23.18446  23.18962  23.19886
 Alpha virt. eigenvalues --   23.20666  23.22783  23.23359  23.26717  23.27155
 Alpha virt. eigenvalues --   23.29463  23.30514  23.30648  23.31183  23.31686
 Alpha virt. eigenvalues --   23.31900  23.34060  23.34403  23.34474  23.35095
 Alpha virt. eigenvalues --   23.35336  23.39805  23.45091  23.48331  23.52629
 Alpha virt. eigenvalues --   23.53081  23.58053  23.58836  23.60700  23.78038
 Alpha virt. eigenvalues --   23.86891  24.11118  24.11470  24.13407  24.17590
 Alpha virt. eigenvalues --   24.18914  33.11512  33.25517  44.00172  44.00348
 Alpha virt. eigenvalues --   57.35979  57.36126  57.37192  57.37557  57.37766
 Alpha virt. eigenvalues --   57.37802  57.41465  57.45180  57.45743  57.46098
 Alpha virt. eigenvalues --   57.57580
          Condensed to atoms (all electrons):
 Mulliken charges:
               1
     1  F   -0.331779
     2  B    0.341971
     3  F   -0.333331
     4  N   -0.080134
     5  C    0.059849
     6  C   -0.203113
     7  C   -0.085519
     8  C    0.082554
     9  C   -0.169215
    10  C   -0.117111
    11  C   -0.094798
    12  C   -0.117767
    13  C   -0.139085
    14  C    0.528188
    15  F   -0.187334
    16  F   -0.188422
    17  F   -0.188607
    18  C    0.096906
    19  C   -0.078794
    20  C    0.006401
    21  C    0.185553
    22  C   -0.024526
    23  C   -0.053668
    24  C    0.041514
    25  C    0.108979
    26  C   -0.241699
    27  C   -0.078264
    28  C    0.056650
    29  C   -0.166172
    30  C   -0.123696
    31  C   -0.095390
    32  C   -0.115718
    33  C   -0.134331
    34  C    0.528609
    35  F   -0.188815
    36  F   -0.187482
    37  F   -0.189264
    38  N   -0.093514
    39  C   -0.044862
    40  C   -0.150179
    41  C   -0.121164
    42  C   -0.021240
    43  C    0.164888
    44  O   -0.377934
    45  C   -0.117003
    46  C   -0.211682
    47  C   -0.091777
    48  C   -0.203655
    49  C   -0.097626
    50  C   -0.101584
    51  C   -0.093862
    52  C   -0.201171
    53  C    0.529350
    54  F   -0.186319
    55  F   -0.185955
    56  F   -0.186062
    57  C   -0.150586
    58  C   -0.117391
    59  C   -0.151522
    60  C   -0.013278
    61  C    0.164592
    62  O   -0.378080
    63  C   -0.092872
    64  C   -0.181229
    65  H    0.132041
    66  H    0.169645
    67  H    0.157064
    68  H    0.164718
    69  H    0.168482
    70  H    0.148656
    71  H    0.229796
    72  H    0.226262
    73  H    0.162172
    74  H    0.135724
    75  H    0.157564
    76  H    0.164273
    77  H    0.168271
    78  H    0.148708
    79  H    0.160096
    80  H    0.158460
    81  H    0.091031
    82  H    0.164007
    83  H    0.185969
    84  H    0.195347
    85  H    0.171545
    86  H    0.172079
    87  H    0.194545
    88  H    0.163170
    89  H    0.164240
    90  H    0.091403
    91  H    0.158718
    92  H    0.184593
 Sum of Mulliken charges =  -0.00000
 Mulliken charges with hydrogens summed into heavy atoms:
               1
     1  F   -0.331779
     2  B    0.341971
     3  F   -0.333331
     4  N   -0.080134
     5  C    0.059849
     6  C   -0.071072
     7  C    0.084126
     8  C    0.082554
     9  C   -0.012151
    10  C    0.047607
    11  C   -0.094798
    12  C    0.050715
    13  C    0.009571
    14  C    0.528188
    15  F   -0.187334
    16  F   -0.188422
    17  F   -0.188607
    18  C    0.096906
    19  C    0.151002
    20  C    0.006401
    21  C    0.185553
    22  C   -0.024526
    23  C    0.172594
    24  C    0.041514
    25  C    0.108979
    26  C   -0.079526
    27  C    0.057460
    28  C    0.056650
    29  C   -0.008608
    30  C    0.040577
    31  C   -0.095390
    32  C    0.052554
    33  C    0.014377
    34  C    0.528609
    35  F   -0.188815
    36  F   -0.187482
    37  F   -0.189264
    38  N   -0.093514
    39  C   -0.044862
    40  C    0.009917
    41  C    0.037295
    42  C   -0.021240
    43  C    0.255919
    44  O   -0.377934
    45  C    0.047004
    46  C   -0.025713
    47  C   -0.091777
    48  C   -0.008308
    49  C    0.073918
    50  C   -0.101584
    51  C    0.078217
    52  C   -0.006625
    53  C    0.529350
    54  F   -0.186319
    55  F   -0.185955
    56  F   -0.186062
    57  C   -0.150586
    58  C    0.045780
    59  C    0.012718
    60  C   -0.013278
    61  C    0.255995
    62  O   -0.378080
    63  C    0.065846
    64  C    0.003364
 Electronic spatial extent (au):  <R**2>=          75037.9666
 Charge=             -0.0000 electrons
 Dipole moment (field-independent basis, Debye):
    X=             -6.8756    Y=             -3.5375    Z=              3.1109  Tot=              8.3346
 Quadrupole moment (field-independent basis, Debye-Ang):
   XX=           -412.8588   YY=           -481.4200   ZZ=           -354.4041
   XY=            -19.5796   XZ=            -10.9094   YZ=              0.5094
 Traceless Quadrupole moment (field-independent basis, Debye-Ang):
   XX=              3.3689   YY=            -65.1924   ZZ=             61.8235
   XY=            -19.5796   XZ=            -10.9094   YZ=              0.5094
 Octapole moment (field-independent basis, Debye-Ang**2):
  XXX=           -223.0595  YYY=            -73.0988  ZZZ=             -9.0726  XYY=            163.0941
  XXY=             30.1627  XXZ=             56.4821  XZZ=              2.1342  YZZ=            -13.8955
  YYZ=            219.8971  XYZ=            -64.3134
 Hexadecapole moment (field-independent basis, Debye-Ang**3):
 XXXX=         -53879.0608 YYYY=         -65242.5833 ZZZZ=          -1386.2853 XXXY=           -530.1738
 XXXZ=           -549.9134 YYYX=           1130.2726 YYYZ=             55.5915 ZZZX=             75.3629
 ZZZY=            -10.8442 XXYY=         -17779.8232 XXZZ=          -7799.4444 YYZZ=          -7733.6975
 XXYZ=            343.6742 YYXZ=           -476.7660 ZZXY=            139.8107
 N-N= 8.573813254763D+03 E-N=-2.471135490549D+04  KE= 3.213460116196D+03
 No NMR shielding tensors so no spin-rotation constants.
 Leave Link  601 at Fri Nov  7 21:07:38 2025, MaxMem= 30870077440 cpu:             191.5 elap:               3.6
 (Enter /public/software/gauss/g16/l9999.exe)
 1\1\GINC-CU015\SP\RM062X\def2TZVPP\C48H28B1F11N2O2\BAIDING\07-Nov-2025
 \0\\#p M062X/DEF2TZVPP scrf=(solvent=water) em=GD3\\Energy calculation
  for M100039987\\0,1\F,0,0.632306,0.271829,-1.184502\B,0,-0.086967,0.1
 60616,0.014501\F,0,0.725264,0.507694,1.095611\N,0,-0.569111,-1.315519,
 0.168047\C,0,0.235696,-2.415216,0.21726\C,0,1.67427,-2.269168,0.273676
 \C,0,2.560939,-3.187095,-0.176893\C,0,4.017088,-3.061253,-0.162725\C,0
 ,4.699285,-1.956324,0.388236\C,0,6.085704,-1.89323,0.363753\C,0,6.8255
 09,-2.93382,-0.213019\C,0,6.170187,-4.039458,-0.760266\C,0,4.780726,-4
 .097914,-0.733796\C,0,8.324638,-2.880245,-0.188936\F,0,8.882186,-3.609
 079,-1.182615\F,0,8.83294,-3.363628,0.974461\F,0,8.792089,-1.615533,-0
 .311186\C,0,-0.590049,-3.590658,0.156382\C,0,-1.900643,-3.147929,0.027
 033\C,0,-1.888761,-1.73346,0.048828\C,0,-2.939417,-0.807716,-0.035413\
 C,0,-2.65944,0.571779,-0.023166\C,0,-3.554916,1.657684,0.074689\C,0,-2
 .803022,2.825005,0.125455\C,0,-1.422878,2.434716,0.0611\C,0,-0.317004,
 3.36227,0.145237\C,0,0.946168,3.200451,-0.316112\C,0,2.028957,4.175669
 ,-0.198413\C,0,1.935227,5.365688,0.553786\C,0,3.003618,6.249324,0.6236
 96\C,0,4.196726,5.963716,-0.052682\C,0,4.313073,4.789372,-0.800357\C,0
 ,3.239791,3.90724,-0.866974\C,0,5.328263,6.947521,-0.009817\F,0,5.1968
 02,7.918055,-0.951318\F,0,6.528165,6.362299,-0.228238\F,0,5.406606,7.5
 84121,1.182754\N,0,-1.355402,1.070304,-0.021364\C,0,-3.354702,4.186159
 ,0.212628\C,0,-4.486339,4.423368,1.017648\C,0,-5.04695,5.691926,1.0962
 67\C,0,-4.490912,6.758657,0.373143\C,0,-5.096633,8.092288,0.476431\O,0
 ,-4.693084,9.092237,-0.112563\C,0,-3.368107,6.530035,-0.439434\C,0,-2.
 810595,5.262127,-0.52167\C,0,-4.34399,-1.276856,-0.122931\C,0,-4.86297
 2,-2.170004,0.829982\C,0,-6.181894,-2.605841,0.745448\C,0,-6.996396,-2
 .158393,-0.298199\C,0,-6.493043,-1.273429,-1.255019\C,0,-5.176525,-0.8
 31558,-1.16396\C,0,-8.402366,-2.673892,-0.420248\F,0,-8.952316,-2.9461
 66,0.785339\F,0,-9.218513,-1.792891,-1.041967\F,0,-8.45832,-3.824657,-
 1.137441\C,0,-0.203794,-5.00861,0.28297\C,0,-0.788449,-5.967099,-0.570
 718\C,0,-0.492484,-7.315416,-0.432294\C,0,0.396401,-7.742649,0.568116\
 C,0,0.727162,-9.163377,0.735871\O,0,0.281425,-10.072931,0.040407\C,0,0
 .977506,-6.795515,1.425674\C,0,0.680995,-5.445008,1.286969\H,0,2.02522
 1,-1.322068,0.668744\H,0,2.189991,-4.107211,-0.61836\H,0,4.145199,-1.1
 39703,0.83781\H,0,6.595238,-1.034599,0.787636\H,0,6.739765,-4.846125,-
 1.208211\H,0,4.272121,-4.95551,-1.163722\H,0,-2.780676,-3.770831,-0.03
 3478\H,0,-4.632008,1.584866,0.093815\H,0,-0.592686,4.30918,0.599709\H,
 0,1.203946,2.293808,-0.851313\H,0,1.027905,5.599293,1.099924\H,0,2.916
 534,7.156754,1.211526\H,0,5.236363,4.562067,-1.321602\H,0,3.333806,2.9
 92541,-1.444393\H,0,-4.910899,3.607944,1.594045\H,0,-5.915722,5.86632,
 1.725348\H,0,-5.977158,8.154689,1.144348\H,0,-2.949436,7.352544,-1.010
 363\H,0,-1.965082,5.092147,-1.178844\H,0,-4.240203,-2.502319,1.652965\
 H,0,-6.575925,-3.282892,1.495168\H,0,-7.12389,-0.928635,-2.06665\H,0,-
 4.785097,-0.152714,-1.913416\H,0,-1.467792,-5.638892,-1.350877\H,0,-0.
 939127,-8.049446,-1.095278\H,0,1.431868,-9.384243,1.560436\H,0,1.65569
 9,-7.127077,2.207389\H,0,1.122973,-4.722481,1.964087\\Version=ES64L-G1
 6RevA.03\State=1-A\HF=-3229.3845709\RMSD=6.183e-09\Dipole=-2.7050739,-
 1.3917661,1.2239211\Quadrupole=2.504665,-48.4689339,45.9642689,-14.556
 9365,-8.1108992,0.3786969\PG=C01 [X(C48H28B1F11N2O2)]\\@


 LET US LEARN TO DREAM, GENTLEMEN, THEN PERHAPS WE SHALL
 DISCOVER THE TRUTH;  BUT LET US BEWARE OF PUBLISHING
 OUR DREAMS ABROAD BEFORE THEY HAVE BEEN SCRUTINIZED
 BY OUR VIGILANT INTELLECT ... LET US ALWAYS ALLOW
 THE FRUIT TO HANG UNTIL IT IS RIPE.  UNRIPE FRUIT
 BRINGS EVEN THE GROWER BUT LITTLE PROFIT; IT DAMAGES
 THE HEALTH OF THOSE WHO CONSUME IT; IT ENDANGERS
 PARTICULARLY THE YOUTH WHO CANNOT YET DISTINGUISH
 BETWEEN RIPE AND UNRIPE FRUIT.

                                  -- KEKULE, 1890
 Job cpu time:       1 days  2 hours 52 minutes 21.1 seconds.
 Elapsed time:       0 days  0 hours 25 minutes 41.0 seconds.
 File lengths (MBytes):  RWF=   3760 Int=      0 D2E=      0 Chk=    327 Scr=      1
 Normal termination of Gaussian 16 at Fri Nov  7 21:07:39 2025.
