 Entering Gaussian System, Link 0=g16
 Input=M100035759_sp.gjf
 Output=M100035759_sp.log
 Initial command:
 /public/software/gauss/g16/l1.exe "/public/home/baiding/1101_v2_sp/tmp_M100035759_sp_1568608/Gau-25872.inp" -scrdir="/public/home/baiding/1101_v2_sp/tmp_M100035759_sp_1568608/"
 Entering Link 1 = /public/software/gauss/g16/l1.exe PID=     25873.
  
 Copyright (c) 1988,1990,1992,1993,1995,1998,2003,2009,2016,
            Gaussian, Inc.  All Rights Reserved.
  
 This is part of the Gaussian(R) 16 program.  It is based on
 the Gaussian(R) 09 system (copyright 2009, Gaussian, Inc.),
 the Gaussian(R) 03 system (copyright 2003, Gaussian, Inc.),
 the Gaussian(R) 98 system (copyright 1998, Gaussian, Inc.),
 the Gaussian(R) 94 system (copyright 1995, Gaussian, Inc.),
 the Gaussian 92(TM) system (copyright 1992, Gaussian, Inc.),
 the Gaussian 90(TM) system (copyright 1990, Gaussian, Inc.),
 the Gaussian 88(TM) system (copyright 1988, Gaussian, Inc.),
 the Gaussian 86(TM) system (copyright 1986, Carnegie Mellon
 University), and the Gaussian 82(TM) system (copyright 1983,
 Carnegie Mellon University). Gaussian is a federally registered
 trademark of Gaussian, Inc.
  
 This software contains proprietary and confidential information,
 including trade secrets, belonging to Gaussian, Inc.
  
 This software is provided under written license and may be
 used, copied, transmitted, or stored only in accord with that
 written license.
  
 The following legend is applicable only to US Government
 contracts under FAR:
  
                    RESTRICTED RIGHTS LEGEND
  
 Use, reproduction and disclosure by the US Government is
 subject to restrictions as set forth in subparagraphs (a)
 and (c) of the Commercial Computer Software - Restricted
 Rights clause in FAR 52.227-19.
  
 Gaussian, Inc.
 340 Quinnipiac St., Bldg. 40, Wallingford CT 06492
  
  
 ---------------------------------------------------------------
 Warning -- This program may not be used in any manner that
 competes with the business of Gaussian, Inc. or will provide
 assistance to any competitor of Gaussian, Inc.  The licensee
 of this program is prohibited from giving any competitor of
 Gaussian, Inc. access to this program.  By using this program,
 the user acknowledges that Gaussian, Inc. is engaged in the
 business of creating and licensing software in the field of
 computational chemistry and represents and warrants to the
 licensee that it is not a competitor of Gaussian, Inc. and that
 it will not use this program in any manner prohibited above.
 ---------------------------------------------------------------
  

 Cite this work as:
 Gaussian 16, Revision A.03,
 M. J. Frisch, G. W. Trucks, H. B. Schlegel, G. E. Scuseria, 
 M. A. Robb, J. R. Cheeseman, G. Scalmani, V. Barone, 
 G. A. Petersson, H. Nakatsuji, X. Li, M. Caricato, A. V. Marenich, 
 J. Bloino, B. G. Janesko, R. Gomperts, B. Mennucci, H. P. Hratchian, 
 J. V. Ortiz, A. F. Izmaylov, J. L. Sonnenberg, D. Williams-Young, 
 F. Ding, F. Lipparini, F. Egidi, J. Goings, B. Peng, A. Petrone, 
 T. Henderson, D. Ranasinghe, V. G. Zakrzewski, J. Gao, N. Rega, 
 G. Zheng, W. Liang, M. Hada, M. Ehara, K. Toyota, R. Fukuda, 
 J. Hasegawa, M. Ishida, T. Nakajima, Y. Honda, O. Kitao, H. Nakai, 
 T. Vreven, K. Throssell, J. A. Montgomery, Jr., J. E. Peralta, 
 F. Ogliaro, M. J. Bearpark, J. J. Heyd, E. N. Brothers, K. N. Kudin, 
 V. N. Staroverov, T. A. Keith, R. Kobayashi, J. Normand, 
 K. Raghavachari, A. P. Rendell, J. C. Burant, S. S. Iyengar, 
 J. Tomasi, M. Cossi, J. M. Millam, M. Klene, C. Adamo, R. Cammi, 
 J. W. Ochterski, R. L. Martin, K. Morokuma, O. Farkas, 
 J. B. Foresman, and D. J. Fox, Gaussian, Inc., Wallingford CT, 2016.
 
 ******************************************
 Gaussian 16:  ES64L-G16RevA.03 25-Dec-2016
                 7-Nov-2025 
 ******************************************
 %nprocshared=64
 Will use up to   64 processors via shared memory.
 %mem=230GB
 %chk=M100035759_sp.chk
 ----------------------------------------------
 #p M062X/DEF2TZVPP scrf=(solvent=water) em=GD3
 ----------------------------------------------
 1/38=1,172=1/1;
 2/12=2,17=6,18=5,40=1/2;
 3/5=44,7=202,11=2,25=1,30=1,70=2201,72=1,74=-55,124=31/1,2,3;
 4//1;
 5/5=2,38=5,53=1/2;
 6/7=2,8=2,9=2,10=2,28=1/1;
 99/5=1,9=1/99;
 Leave Link    1 at Fri Nov  7 10:49:07 2025, MaxMem= 30870077440 cpu:              17.3 elap:               0.3
 (Enter /public/software/gauss/g16/l101.exe)
 ---------------------------------
 Energy calculation for M100035759
 ---------------------------------
 Symbolic Z-matrix:
 Charge =  0 Multiplicity = 1
 C                    -2.0801    3.82426  -0.55558 
 C                    -2.03327   2.33847  -0.39637 
 C                    -3.16323   1.47845  -0.19995 
 C                    -4.51294   1.78464  -0.13203 
 C                    -5.4806    0.78652   0.01646 
 C                    -6.89301   0.84377   0.02822 
 C                    -7.35373  -0.46689   0.15158 
 C                    -6.21944  -1.29395   0.21648 
 N                    -5.09679  -0.5487    0.13543 
 B                    -3.63155  -1.04649   0.27323 
 F                    -3.37481  -1.43436   1.59269 
 F                    -3.41582  -2.13082  -0.58163 
 N                    -2.71437   0.15961  -0.11464 
 C                    -1.35919   0.17057  -0.24691 
 C                    -0.57392  -1.03299  -0.2255 
 C                     0.7867   -1.0563   -0.2582 
 C                     1.52244  -2.29262  -0.27795 
 C                     2.87071  -2.47829  -0.25888 
 C                     3.94835  -1.50446  -0.09892 
 C                     3.81953  -0.2957    0.6219 
 C                     4.8854    0.58372   0.74038 
 C                     6.10419   0.25526   0.1413 
 N                     7.2209    1.17442   0.26102 
 O                     7.05277   2.23595   0.87621 
 O                     8.30185   0.86515  -0.25781 
 C                     6.28138  -0.94423  -0.55421 
 C                     5.20896  -1.81541  -0.65812 
 C                    -0.92336   1.51763  -0.42311 
 H                    -1.07299   4.23154  -0.66974 
 H                    -2.66627   4.11139  -1.43562 
 H                    -2.54705   4.3029    0.3121 
 H                    -4.82796   2.81906  -0.21752 
 H                    -7.47935   1.74859  -0.05728 
 H                    -8.38023  -0.8037    0.1867 
 H                    -6.16779  -2.36952   0.3191 
 H                    -1.11629  -1.97269  -0.19049 
 H                     1.33375  -0.12015  -0.30177 
 H                     0.91454  -3.19126  -0.36916 
 H                     3.21593  -3.4985   -0.41203 
 H                     2.89214  -0.05903   1.12803 
 H                     4.78504   1.50505   1.29957 
 H                     7.24     -1.18115  -0.99758 
 H                     5.33383  -2.75198  -1.19203 
 H                     0.10169   1.82785  -0.57133 
 
 ITRead=  0  0  0  0  0  0  0  0  0  0  0  0  0  0  0  0  0  0  0  0
 ITRead=  0  0  0  0  0  0  0  0  0  0  0  0  0  0  0  0  0  0  0  0
 ITRead=  0  0  0  0
 MicOpt= -1 -1 -1 -1 -1 -1 -1 -1 -1 -1 -1 -1 -1 -1 -1 -1 -1 -1 -1 -1
 MicOpt= -1 -1 -1 -1 -1 -1 -1 -1 -1 -1 -1 -1 -1 -1 -1 -1 -1 -1 -1 -1
 MicOpt= -1 -1 -1 -1
 NAtoms=     44 NQM=       44 NQMF=       0 NMMI=      0 NMMIF=      0
                NMic=       0 NMicF=      0.
                    Isotopes and Nuclear Properties:
 (Nuclear quadrupole moments (NQMom) in fm**2, nuclear magnetic moments (NMagM)
  in nuclear magnetons)

  Atom         1           2           3           4           5           6           7           8           9          10
 IAtWgt=          12          12          12          12          12          12          12          12          14          11
 AtmWgt=  12.0000000  12.0000000  12.0000000  12.0000000  12.0000000  12.0000000  12.0000000  12.0000000  14.0030740  11.0093053
 NucSpn=           0           0           0           0           0           0           0           0           2           3
 AtZEff=  -0.0000000  -0.0000000  -0.0000000  -0.0000000  -0.0000000  -0.0000000  -0.0000000  -0.0000000  -0.0000000  -0.0000000
 NQMom=    0.0000000   0.0000000   0.0000000   0.0000000   0.0000000   0.0000000   0.0000000   0.0000000   2.0440000   4.0590000
 NMagM=    0.0000000   0.0000000   0.0000000   0.0000000   0.0000000   0.0000000   0.0000000   0.0000000   0.4037610   2.6886370
 AtZNuc=   6.0000000   6.0000000   6.0000000   6.0000000   6.0000000   6.0000000   6.0000000   6.0000000   7.0000000   5.0000000

  Atom        11          12          13          14          15          16          17          18          19          20
 IAtWgt=          19          19          14          12          12          12          12          12          12          12
 AtmWgt=  18.9984033  18.9984033  14.0030740  12.0000000  12.0000000  12.0000000  12.0000000  12.0000000  12.0000000  12.0000000
 NucSpn=           1           1           2           0           0           0           0           0           0           0
 AtZEff=  -0.0000000  -0.0000000  -0.0000000  -0.0000000  -0.0000000  -0.0000000  -0.0000000  -0.0000000  -0.0000000  -0.0000000
 NQMom=    0.0000000   0.0000000   2.0440000   0.0000000   0.0000000   0.0000000   0.0000000   0.0000000   0.0000000   0.0000000
 NMagM=    2.6288670   2.6288670   0.4037610   0.0000000   0.0000000   0.0000000   0.0000000   0.0000000   0.0000000   0.0000000
 AtZNuc=   9.0000000   9.0000000   7.0000000   6.0000000   6.0000000   6.0000000   6.0000000   6.0000000   6.0000000   6.0000000

  Atom        21          22          23          24          25          26          27          28          29          30
 IAtWgt=          12          12          14          16          16          12          12          12           1           1
 AtmWgt=  12.0000000  12.0000000  14.0030740  15.9949146  15.9949146  12.0000000  12.0000000  12.0000000   1.0078250   1.0078250
 NucSpn=           0           0           2           0           0           0           0           0           1           1
 AtZEff=  -0.0000000  -0.0000000  -0.0000000  -0.0000000  -0.0000000  -0.0000000  -0.0000000  -0.0000000  -0.0000000  -0.0000000
 NQMom=    0.0000000   0.0000000   2.0440000   0.0000000   0.0000000   0.0000000   0.0000000   0.0000000   0.0000000   0.0000000
 NMagM=    0.0000000   0.0000000   0.4037610   0.0000000   0.0000000   0.0000000   0.0000000   0.0000000   2.7928460   2.7928460
 AtZNuc=   6.0000000   6.0000000   7.0000000   8.0000000   8.0000000   6.0000000   6.0000000   6.0000000   1.0000000   1.0000000

  Atom        31          32          33          34          35          36          37          38          39          40
 IAtWgt=           1           1           1           1           1           1           1           1           1           1
 AtmWgt=   1.0078250   1.0078250   1.0078250   1.0078250   1.0078250   1.0078250   1.0078250   1.0078250   1.0078250   1.0078250
 NucSpn=           1           1           1           1           1           1           1           1           1           1
 AtZEff=  -0.0000000  -0.0000000  -0.0000000  -0.0000000  -0.0000000  -0.0000000  -0.0000000  -0.0000000  -0.0000000  -0.0000000
 NQMom=    0.0000000   0.0000000   0.0000000   0.0000000   0.0000000   0.0000000   0.0000000   0.0000000   0.0000000   0.0000000
 NMagM=    2.7928460   2.7928460   2.7928460   2.7928460   2.7928460   2.7928460   2.7928460   2.7928460   2.7928460   2.7928460
 AtZNuc=   1.0000000   1.0000000   1.0000000   1.0000000   1.0000000   1.0000000   1.0000000   1.0000000   1.0000000   1.0000000

  Atom        41          42          43          44
 IAtWgt=           1           1           1           1
 AtmWgt=   1.0078250   1.0078250   1.0078250   1.0078250
 NucSpn=           1           1           1           1
 AtZEff=  -0.0000000  -0.0000000  -0.0000000  -0.0000000
 NQMom=    0.0000000   0.0000000   0.0000000   0.0000000
 NMagM=    2.7928460   2.7928460   2.7928460   2.7928460
 AtZNuc=   1.0000000   1.0000000   1.0000000   1.0000000
 Leave Link  101 at Fri Nov  7 10:49:07 2025, MaxMem= 30870077440 cpu:               3.7 elap:               0.1
 (Enter /public/software/gauss/g16/l202.exe)
                          Input orientation:                          
 ---------------------------------------------------------------------
 Center     Atomic      Atomic             Coordinates (Angstroms)
 Number     Number       Type             X           Y           Z
 ---------------------------------------------------------------------
      1          6           0       -2.080103    3.824257   -0.555579
      2          6           0       -2.033265    2.338471   -0.396370
      3          6           0       -3.163225    1.478447   -0.199950
      4          6           0       -4.512943    1.784635   -0.132034
      5          6           0       -5.480604    0.786520    0.016462
      6          6           0       -6.893013    0.843768    0.028218
      7          6           0       -7.353730   -0.466888    0.151575
      8          6           0       -6.219442   -1.293954    0.216479
      9          7           0       -5.096789   -0.548698    0.135425
     10          5           0       -3.631551   -1.046493    0.273229
     11          9           0       -3.374806   -1.434362    1.592685
     12          9           0       -3.415820   -2.130816   -0.581629
     13          7           0       -2.714371    0.159607   -0.114639
     14          6           0       -1.359193    0.170565   -0.246909
     15          6           0       -0.573918   -1.032994   -0.225497
     16          6           0        0.786696   -1.056297   -0.258204
     17          6           0        1.522443   -2.292617   -0.277946
     18          6           0        2.870709   -2.478289   -0.258880
     19          6           0        3.948354   -1.504459   -0.098921
     20          6           0        3.819531   -0.295701    0.621898
     21          6           0        4.885401    0.583720    0.740382
     22          6           0        6.104193    0.255255    0.141298
     23          7           0        7.220899    1.174423    0.261023
     24          8           0        7.052774    2.235951    0.876206
     25          8           0        8.301849    0.865147   -0.257808
     26          6           0        6.281376   -0.944227   -0.554206
     27          6           0        5.208963   -1.815410   -0.658116
     28          6           0       -0.923356    1.517626   -0.423108
     29          1           0       -1.072992    4.231535   -0.669736
     30          1           0       -2.666269    4.111385   -1.435624
     31          1           0       -2.547048    4.302896    0.312101
     32          1           0       -4.827958    2.819057   -0.217519
     33          1           0       -7.479352    1.748591   -0.057275
     34          1           0       -8.380230   -0.803704    0.186700
     35          1           0       -6.167786   -2.369524    0.319103
     36          1           0       -1.116289   -1.972686   -0.190494
     37          1           0        1.333746   -0.120147   -0.301767
     38          1           0        0.914535   -3.191262   -0.369160
     39          1           0        3.215930   -3.498500   -0.412025
     40          1           0        2.892139   -0.059031    1.128029
     41          1           0        4.785038    1.505046    1.299574
     42          1           0        7.239999   -1.181146   -0.997579
     43          1           0        5.333826   -2.751984   -1.192029
     44          1           0        0.101692    1.827851   -0.571333
 ---------------------------------------------------------------------
                    Distance matrix (angstroms):
                    1          2          3          4          5
     1  C    0.000000
     2  C    1.495026   0.000000
     3  C    2.608151   1.433538   0.000000
     4  C    3.202836   2.554488   1.385678   0.000000
     5  C    4.595485   3.803042   2.428136   1.398089   0.000000
     6  C    5.691066   5.102114   3.790277   2.564302   1.413618
     7  C    6.835579   6.039671   4.633382   3.635913   2.257850
     8  C    6.627691   5.576215   4.147298   3.537133   2.216813
     9  N    5.357296   4.243080   2.821429   2.420094   1.394372
    10  B    5.178621   3.802744   2.611235   2.992720   2.616269
    11  F    5.826180   4.471056   3.426772   3.825174   3.442554
    12  F    6.103090   4.681913   3.638167   4.091035   3.623796
    13  N    3.745181   2.300158   1.395739   2.424021   2.839411
    14  C    3.736904   2.275198   2.228742   3.544652   4.175499
    15  C    5.096120   3.677726   3.607284   4.843933   5.238773
    16  C    5.668049   4.415396   4.693634   6.014398   6.538384
    17  C    7.104334   5.839868   6.015188   7.284995   7.655745
    18  C    8.020016   6.875248   7.215788   8.526836   8.971021
    19  C    8.058911   7.115922   7.712489   9.078149   9.703976
    20  C    7.291515   6.498535   7.251339   8.621272   9.382445
    21  C    7.790946   7.227676   8.152616   9.514840  10.393231
    22  C    8.955787   8.417072   9.354020  10.730205  11.597644
    23  N    9.705519   9.350226  10.398796  11.756271  12.709778
    24  O    9.379881   9.175296  10.300416  11.618349  12.646168
    25  O   10.799534  10.440520  11.481612  12.848353  13.785406
    26  C    9.625631   8.940597   9.756810  11.141914  11.902324
    27  C    9.216661   8.353030   9.008493  10.380392  11.022338
    28  C    2.583826   1.380724   2.251299   3.611254   4.636405
    29  H    1.092328   2.140221   3.488448   4.255550   5.636137
    30  H    1.095679   2.150341   2.950630   3.243966   4.591706
    31  H    1.095446   2.150551   2.935878   3.225467   4.588905
    32  H    2.945406   2.841348   2.137494   1.084699   2.147534
    33  H    5.805910   5.488425   4.326926   2.967570   2.219462
    34  H    7.852426   7.106138   5.707438   4.664440   3.311438
    35  H    7.472426   6.306456   4.909550   4.494337   3.244137
    36  H    5.887850   4.412403   4.012525   5.065386   5.167523
    37  H    5.222749   4.170194   4.773743   6.151486   6.881764
    38  H    7.630211   6.266435   6.201850   7.367041   7.541171
    39  H    9.038326   7.850129   8.093738   9.366183   9.704365
    40  H    6.529751   5.686072   6.387081   7.734475   8.488425
    41  H    7.480006   7.075315   8.088521   9.411701  10.370442
    42  H   10.588377   9.936930  10.767391  12.152229  12.911767
    43  H    9.930678   8.989985   9.543618  10.893271  11.442611
    44  H    2.957383   2.202132   3.304496   4.635699   5.708932
                    6          7          8          9         10
     6  C    0.000000
     7  C    1.394739   0.000000
     8  C    2.249221   1.405297   0.000000
     9  N    2.275275   2.258481   1.349936   0.000000
    10  B    3.777599   3.769000   2.600315   1.553613   0.000000
    11  F    4.473837   4.341041   3.163165   2.423475   1.399044
    12  F    4.616377   4.337439   3.032756   2.417213   1.397526
    13  N    4.236689   4.689032   3.808937   2.498028   1.564077
    14  C    5.581403   6.041491   5.097211   3.825329   2.629712
    15  C    6.596785   6.813847   5.668808   4.563022   3.098069
    16  C    7.916452   8.172017   7.026220   5.918445   4.450104
    17  C    8.986131   9.072167   7.821673   6.857577   5.331067
    18  C   10.317401  10.428488   9.179295   8.207303   6.679264
    19  C   11.093492  11.352374  10.174864   9.098517   7.602841
    20  C   10.789321  11.184466  10.096626   8.933164   7.496925
    21  C   11.802789  12.298244  11.274647  10.064416   8.684141
    22  C   13.011015  13.477288  12.420857  11.229798   9.823272
    23  N   14.119704  14.667164  13.665198  12.438262  11.077377
    24  O   14.040735  14.675755  13.749443  12.486589  11.193428
    25  O   15.197569  15.717476  14.688586  13.478764  12.097206
    26  C   13.307918  13.661702  12.529434  11.405905   9.947926
    27  C   12.409678  12.660781  11.473677  10.413587   8.922630
    28  C    6.024499   6.754130   6.030139   4.690330   3.793931
    29  H    6.770284   7.886533   7.602786   6.299988   5.940790
    30  H    5.539451   6.741815   6.676239   5.485617   5.518664
    31  H    5.561795   6.773537   6.694800   5.483645   5.458353
    32  H    2.868206   4.160912   4.363650   3.396853   4.076113
    33  H    1.081576   2.228844   3.304451   3.315309   4.767316
    34  H    2.225106   1.080917   2.215905   3.293728   4.755669
    35  H    3.306934   2.248233   1.081689   2.120420   2.860944
    36  H    6.430458   6.425738   5.164153   4.240088   2.720187
    37  H    8.289607   8.706204   7.661400   6.459611   5.083592
    38  H    8.797567   8.721100   7.405159   6.585876   5.067504
    39  H   11.010896  11.010269   9.709855   8.837552   7.305471
    40  H    9.888065  10.300371   9.239960   8.065234   6.653142
    41  H   11.765650  12.351361  11.406405  10.159902   8.854530
    42  H   14.314139  14.656318  13.514556  12.404839  10.946400
    43  H   12.802891  12.961520  11.729780  10.743106   9.243033
    44  H    7.088990   7.834012   7.093874   5.759488   4.786673
                   11         12         13         14         15
    11  F    0.000000
    12  F    2.283500   0.000000
    13  N    2.427317   2.440522   0.000000
    14  C    3.165848   3.104530   1.361662   0.000000
    15  C    3.363310   3.067320   2.452779   1.437244   0.000000
    16  C    4.570210   4.349751   3.708976   2.471873   1.361207
    17  C    5.312147   4.950237   4.898027   3.791049   2.446248
    18  C    6.597313   6.304391   6.178383   4.990856   3.735699
    19  C    7.516323   7.406510   6.867406   5.567554   4.548543
    20  C    7.348296   7.560848   6.591029   5.271756   4.534763
    21  C    8.545765   8.833272   7.659469   6.335645   5.775020
    22  C    9.737184   9.841067   8.822796   7.473955   6.811115
    23  N   10.993091  11.170249   9.994026   8.653537   8.115945
    24  O   11.077859  11.436144  10.034446   8.734323   8.370554
    25  O   12.043934  12.098943  11.039719   9.685984   9.076520
    26  C    9.904101   9.769563   9.073871   7.727580   6.863744
    27  C    8.882139   8.630887   8.183843   6.874144   5.851585
    28  C    4.334427   4.421384   2.268723   1.426735   2.582018
    29  H    6.520681   6.780569   4.425252   4.092942   5.306759
    30  H    6.358301   6.344778   4.166997   4.318744   5.683923
    31  H    5.936431   6.553333   4.168567   4.335856   5.714366
    32  H    4.845623   5.160228   3.398604   4.364368   5.738921
    33  H    5.449849   5.642432   5.023266   6.323170   7.446511
    34  H    5.237250   5.195856   5.755061   7.101562   7.820549
    35  H    3.208937   2.905446   4.302408   5.467631   5.777046
    36  H    2.927528   2.337912   2.665763   2.157709   1.085547
    37  H    5.242764   5.165219   4.062084   2.709141   2.116197
    38  H    5.033287   4.463369   4.945914   4.060377   2.625691
    39  H    7.191476   6.773436   6.974142   5.866946   4.525092
    40  H    6.432887   6.856061   5.746737   4.474035   3.846321
    41  H    8.678081   9.165833   7.749280   6.474876   6.122573
    42  H   10.929212  10.706137  10.082990   8.737089   7.853366
    43  H    9.237480   8.792880   8.626216   7.364173   6.228206
    44  H    5.235556   5.295662   3.304817   2.232943   2.959812
                   16         17         18         19         20
    16  C    0.000000
    17  C    1.438819   0.000000
    18  C    2.522929   1.361124   0.000000
    19  C    3.197233   2.557007   1.461250   0.000000
    20  C    3.248257   3.173957   2.537661   1.413248   0.000000
    21  C    4.526170   4.540902   3.799132   2.437822   1.386903
    22  C    5.491406   5.259263   4.252978   2.793195   2.398793
    23  N    6.829691   6.692029   5.704100   4.244469   3.723009
    24  O    7.168648   7.240480   6.403292   4.957718   4.114340
    25  O    7.756898   7.478785   6.377762   4.959153   4.713027
    26  C    5.503788   4.953980   3.751428   2.442158   2.804369
    27  C    4.504734   3.736668   2.462972   1.413692   2.424556
    28  C    3.094600   4.530006   5.512643   5.742095   5.184127
    29  H    5.620406   7.032378   7.793800   7.644696   6.789769
    30  H    6.325680   7.739300   8.687155   8.779392   8.106874
    31  H    6.337195   7.772368   8.698424   8.722646   7.859796
    32  H    6.822343   8.152328   9.345216   9.784197   9.229594
    33  H    8.731284   9.869771  11.181723  11.881773  11.502398
    34  H    9.181191  10.024754  11.383602  12.351786  12.218086
    35  H    7.100892   7.713754   9.057609  10.161662  10.204848
    36  H    2.113222   2.659494   4.019510   5.087065   5.275849
    37  H    1.085144   2.180780   2.815125   2.965407   2.657650
    38  H    2.141665   1.088777   2.084972   3.481722   4.219653
    39  H    3.448071   2.083274   1.087870   2.147249   3.419247
    40  H    2.710917   2.973506   2.788689   2.170313   1.082699
    41  H    4.997388   5.249318   4.686192   3.422419   2.152705
    42  H    6.496721   5.868874   4.617245   3.427396   3.886685
    43  H    4.942042   3.946290   2.648135   2.161189   3.408335
    44  H    2.980871   4.368394   5.129125   5.111191   4.444727
                   21         22         23         24         25
    21  C    0.000000
    22  C    1.397228   0.000000
    23  N    2.456271   1.451288   0.000000
    24  O    2.728703   2.315826   1.238369   0.000000
    25  O    3.570392   2.315372   1.238261   2.173771   0.000000
    26  C    2.441173   1.397811   2.456823   3.571367   2.728369
    27  C    2.795767   2.393356   3.719113   4.708217   4.112369
    28  C    5.997295   7.162303   8.180141   8.113129   9.249728
    29  H    7.127232   8.245033   8.888244   8.508840   9.969448
    30  H    8.614357   9.709656  10.452772  10.164724  11.498910
    31  H    8.322079   9.552829  10.256839   9.836008  11.394801
    32  H   10.013174  11.234490  12.169995  11.945210  13.274457
    33  H   12.445091  13.666828  14.714903  14.570230  15.807182
    34  H   13.349475  14.523153  15.726212  15.744603  16.771238
    35  H   11.448671  12.550799  13.849903  14.010852  14.838001
    36  H    6.589539   7.563674   8.922828   9.251166   9.836623
    37  H    3.767726   4.805663   6.054025   6.296515   7.037556
    38  H    5.590112   6.250728   7.695880   8.287554   8.428479
    39  H    4.558475   4.768533   6.191040   7.018892   6.703116
    40  H    2.129904   3.374864   4.583805   4.758281   5.660354
    41  H    1.082409   2.154936   2.668580   2.419936   3.899086
    42  H    3.417513   2.156466   2.670796   3.901625   2.421178
    43  H    3.881007   3.378567   4.592284   5.666734   4.771327
    44  H    5.113935   6.245872   7.197423   7.111923   8.262425
                   26         27         28         29         30
    26  C    0.000000
    27  C    1.385578   0.000000
    28  C    7.614859   6.983530   0.000000
    29  H    8.993808   8.719440   2.729197   0.000000
    30  H   10.314866   9.886895   3.284893   1.771878   0.000000
    31  H   10.306496   9.926263   3.306756   1.772551   1.762224
    32  H   11.734265  11.064004   4.120911   4.037247   2.797640
    33  H   14.030533  13.193046   6.570256   6.897939   5.536101
    34  H   14.680987  13.652964   7.833608   8.915315   7.709694
    35  H   12.560883  11.432078   6.569997   8.396946   7.572441
    36  H    7.477664   6.344464   3.503371   6.222854   6.400680
    37  H    5.022139   4.244786   2.791332   4.986474   5.932252
    38  H    5.821202   4.518692   5.055134   7.690158   8.202936
    39  H    3.992679   2.620216   6.503486   8.843908   9.672558
    40  H    3.885925   3.412163   4.410201   6.112543   7.406793
    41  H    3.416792   3.877846   5.962680   6.754883   8.354417
    42  H    1.082436   2.154677   8.617062   9.925241  11.239969
    43  H    2.138377   1.085276   7.614009   9.491556  10.543562
    44  H    6.772976   6.274161   1.081172   2.677174   3.690953
                   31         32         33         34         35
    31  H    0.000000
    32  H    2.772152   0.000000
    33  H    5.566735   2.863820   0.000000
    34  H    7.753651   5.089836   2.717594   0.000000
    35  H    7.591507   5.385580   4.338287   2.713712   0.000000
    36  H    6.456207   6.061189   7.372531   7.367064   5.092621
    37  H    5.916139   6.827343   9.012361   9.750240   7.856091
    38  H    8.283060   8.314034   9.744576   9.612600   7.162976
    39  H    9.726153  10.230029  11.918342  11.920207   9.479623
    40  H    7.019751   8.348281  10.594351  11.336090   9.384827
    41  H    7.909649   9.820279  12.341621  13.412423  11.659244
    42  H   11.294966  12.737571  15.037514  15.669605  13.524592
    43  H   10.683722  11.629618  13.627926  13.920202  11.606760
    44  H    3.731237   5.040746   7.598866   8.913063   7.597183
                   36         37         38         39         40
    36  H    0.000000
    37  H    3.073590   0.000000
    38  H    2.375099   3.100327   0.000000
    39  H    4.598403   3.868855   2.322208   0.000000
    40  H    4.633365   2.115807   3.995418   3.782401   0.000000
    41  H    7.010034   4.137265   6.310370   5.516080   2.461469
    42  H    8.432406   6.041001   6.666856   4.680399   4.968022
    43  H    6.573763   4.870295   4.516659   2.377220   4.312366
    44  H    4.009064   2.320629   5.088525   6.172023   3.772897
                   41         42         43         44
    41  H    0.000000
    42  H    4.303414   0.000000
    43  H    4.963019   2.477668   0.000000
    44  H    5.053536   7.758297   6.981073   0.000000
 Stoichiometry    C20H16BF2N3O2
 Framework group  C1[X(C20H16BF2N3O2)]
 Deg. of freedom   126
 Full point group                 C1      NOp   1
 Largest Abelian subgroup         C1      NOp   1
 Largest concise Abelian subgroup C1      NOp   1
                         Standard orientation:                         
 ---------------------------------------------------------------------
 Center     Atomic      Atomic             Coordinates (Angstroms)
 Number     Number       Type             X           Y           Z
 ---------------------------------------------------------------------
      1          6           0       -2.080103    3.824257   -0.555579
      2          6           0       -2.033265    2.338471   -0.396370
      3          6           0       -3.163225    1.478447   -0.199950
      4          6           0       -4.512943    1.784635   -0.132034
      5          6           0       -5.480604    0.786520    0.016462
      6          6           0       -6.893013    0.843768    0.028218
      7          6           0       -7.353730   -0.466888    0.151575
      8          6           0       -6.219442   -1.293954    0.216479
      9          7           0       -5.096789   -0.548698    0.135425
     10          5           0       -3.631551   -1.046493    0.273229
     11          9           0       -3.374806   -1.434362    1.592685
     12          9           0       -3.415820   -2.130816   -0.581629
     13          7           0       -2.714371    0.159607   -0.114639
     14          6           0       -1.359193    0.170565   -0.246909
     15          6           0       -0.573918   -1.032994   -0.225497
     16          6           0        0.786696   -1.056297   -0.258204
     17          6           0        1.522443   -2.292617   -0.277946
     18          6           0        2.870709   -2.478289   -0.258880
     19          6           0        3.948354   -1.504459   -0.098921
     20          6           0        3.819531   -0.295701    0.621898
     21          6           0        4.885401    0.583720    0.740382
     22          6           0        6.104193    0.255255    0.141298
     23          7           0        7.220899    1.174423    0.261023
     24          8           0        7.052774    2.235951    0.876206
     25          8           0        8.301849    0.865147   -0.257808
     26          6           0        6.281376   -0.944227   -0.554206
     27          6           0        5.208963   -1.815410   -0.658116
     28          6           0       -0.923356    1.517626   -0.423108
     29          1           0       -1.072992    4.231535   -0.669736
     30          1           0       -2.666269    4.111385   -1.435624
     31          1           0       -2.547048    4.302896    0.312101
     32          1           0       -4.827958    2.819057   -0.217519
     33          1           0       -7.479352    1.748591   -0.057275
     34          1           0       -8.380230   -0.803704    0.186700
     35          1           0       -6.167786   -2.369524    0.319103
     36          1           0       -1.116289   -1.972686   -0.190494
     37          1           0        1.333746   -0.120147   -0.301767
     38          1           0        0.914535   -3.191262   -0.369160
     39          1           0        3.215930   -3.498500   -0.412025
     40          1           0        2.892139   -0.059031    1.128029
     41          1           0        4.785038    1.505046    1.299574
     42          1           0        7.239999   -1.181146   -0.997579
     43          1           0        5.333826   -2.751984   -1.192029
     44          1           0        0.101692    1.827851   -0.571333
 ---------------------------------------------------------------------
 Rotational constants (GHZ):           0.4611552           0.0581035           0.0528179
 Leave Link  202 at Fri Nov  7 10:49:07 2025, MaxMem= 30870077440 cpu:               0.3 elap:               0.0
 (Enter /public/software/gauss/g16/l301.exe)
 Standard basis: def2TZVPP (5D, 7F)
 Ernie: Thresh=  0.10000D-02 Tol=  0.10000D-05 Strict=F.
 There are  1248 symmetry adapted cartesian basis functions of A   symmetry.
 There are  1092 symmetry adapted basis functions of A   symmetry.
  1092 basis functions,  1700 primitive gaussians,  1248 cartesian basis functions
    98 alpha electrons       98 beta electrons
       nuclear repulsion energy      2309.2067784941 Hartrees.
 IExCor= 4336 DFT=T Ex+Corr=M062X ExCW=0 ScaHFX=  0.540000
 ScaDFX=  1.000000  1.000000  1.000000  1.000000 ScalE2=  1.000000  1.000000
 IRadAn=      5 IRanWt=     -1 IRanGd=            0 ICorTp=0 IEmpDi=131
 NAtoms=   44 NActive=   44 NUniq=   44 SFac= 1.00D+00 NAtFMM=   60 NAOKFM=F Big=F
 Integral buffers will be    131072 words long.
 Raffenetti 2 integral format.
 Two-electron integral symmetry is turned on.
 R6Disp:  Grimme-D3 Dispersion energy=       -0.0025875914 Hartrees.
 Nuclear repulsion after empirical dispersion term =     2309.2041909027 Hartrees.
 ------------------------------------------------------------------------------
 Polarizable Continuum Model (PCM)
 =================================
 Model                : PCM.
 Atomic radii         : UFF (Universal Force Field).
 Polarization charges : Total charges.
 Charge compensation  : None.
 Solution method      : On-the-fly selection.
 Cavity type          : Scaled VdW (van der Waals Surface) (Alpha=1.100).
 Cavity algorithm     : GePol (No added spheres)
                        Default sphere list used, NSphG=   44.
                        Lebedev-Laikov grids with approx.  5.0 points / Ang**2.
                        Smoothing algorithm: York/Karplus (Gamma=1.0000).
                        Polarization charges: spherical gaussians, with
                                              point-specific exponents (IZeta= 3).
                        Self-potential: point-specific (ISelfS= 7).
                        Self-field    : sphere-specific E.n sum rule (ISelfD= 2).
 Solvent              : Water, Eps=  78.355300 Eps(inf)=   1.777849
 ------------------------------------------------------------------------------
 GePol: Number of generator spheres                  =      44
 GePol: Total number of spheres                      =      44
 GePol: Number of exposed spheres                    =      44 (100.00%)
 GePol: Number of points                             =    3494
 GePol: Average weight of points                     =       0.13
 GePol: Minimum weight of points                     =   0.12D-10
 GePol: Maximum weight of points                     =    0.20577
 GePol: Number of points with low weight             =     209
 GePol: Fraction of low-weight points (<1% of avg)   =       5.98%
 GePol: Cavity surface area                          =    449.232 Ang**2
 GePol: Cavity volume                                =    492.651 Ang**3
 Leave Link  301 at Fri Nov  7 10:49:07 2025, MaxMem= 30870077440 cpu:               4.0 elap:               0.1
 (Enter /public/software/gauss/g16/l302.exe)
 NPDir=0 NMtPBC=     1 NCelOv=     1 NCel=       1 NClECP=     1 NCelD=      1
         NCelK=      1 NCelE2=     1 NClLst=     1 CellRange=     0.0.
 One-electron integrals computed using PRISM.
 One-electron integral symmetry used in STVInt
   1 Symmetry operations used in ECPInt.
 ECPInt:  NShTT=   81810 NPrTT=  237680 LenC2=   59068 LenP2D=  120051.
 LDataN:  DoStor=T MaxTD1= 6 Len=  172
 NBasis=  1092 RedAO= T EigKep=  8.05D-06  NBF=  1092
 NBsUse=  1092 1.00D-06 EigRej= -1.00D+00 NBFU=  1092
 Precomputing XC quadrature grid using
 IXCGrd= 4 IRadAn=           5 IRanWt=          -1 IRanGd=           0 AccXCQ= 0.00D+00.
 Generated NRdTot=       0 NPtTot=           0 NUsed=           0 NTot=          32
 NSgBfM=  1174  1174  1174  1174  1174 MxSgAt=    44 MxSgA2=    44.
 Leave Link  302 at Fri Nov  7 10:49:10 2025, MaxMem= 30870077440 cpu:             174.9 elap:               2.8
 (Enter /public/software/gauss/g16/l303.exe)
 DipDrv:  MaxL=1.
 Leave Link  303 at Fri Nov  7 10:49:10 2025, MaxMem= 30870077440 cpu:              14.3 elap:               0.3
 (Enter /public/software/gauss/g16/l401.exe)
 ExpMin= 6.06D-02 ExpMax= 3.55D+04 ExpMxC= 1.21D+03 IAcc=3 IRadAn=         5 AccDes= 0.00D+00
 Harris functional with IExCor= 1009 and IRadAn=       5 diagonalized for initial guess.
 HarFok:  IExCor= 1009 AccDes= 0.00D+00 IRadAn=         5 IDoV= 1 UseB2=F ITyADJ=14
 ICtDFT=  3500011 ScaDFX=  1.000000  1.000000  1.000000  1.000000
 FoFCou: FMM=F IPFlag=           0 FMFlag=      100000 FMFlg1=           0
         NFxFlg=           0 DoJE=T BraDBF=F KetDBF=T FulRan=T
         wScrn=  0.000000 ICntrl=       500 IOpCl=  0 I1Cent=   200000004 NGrid=           0
         NMat0=    1 NMatS0=      1 NMatT0=    0 NMatD0=    1 NMtDS0=    0 NMtDT0=    0
 Petite list used in FoFCou.
 Harris En= -1310.39876930025    
 JPrj=0 DoOrth=F DoCkMO=F.
 Leave Link  401 at Fri Nov  7 10:49:14 2025, MaxMem= 30870077440 cpu:             251.7 elap:               4.0
 (Enter /public/software/gauss/g16/l502.exe)
 Integral symmetry usage will be decided dynamically.
 Closed shell SCF:
 Using DIIS extrapolation, IDIIS=  1040.
 NGot= 30870077440 LenX= 30866872040 LenY= 30865313288
 Requested convergence on RMS density matrix=1.00D-08 within 128 cycles.
 Requested convergence on MAX density matrix=1.00D-06.
 Requested convergence on             energy=1.00D-06.
 No special actions if energy rises.
 Fock matrices will be formed incrementally for  20 cycles.

 Cycle   1  Pass 1  IDiag  1:
 FoFJK:  IHMeth= 1 ICntrl=       0 DoSepK=F KAlg= 0 I1Cent=           0 FoldK=F
 IRaf= 640000000 NMat=       1 IRICut=       1 DoRegI=T DoRafI=F ISym2E= 0 IDoP0=0 IntGTp=1.
 FoFCou: FMM=F IPFlag=           0 FMFlag=      100000 FMFlg1=           0
         NFxFlg=           0 DoJE=F BraDBF=F KetDBF=F FulRan=T
         wScrn=  0.000000 ICntrl=         0 IOpCl=  0 I1Cent=           0 NGrid=           0
         NMat0=    1 NMatS0=      1 NMatT0=    0 NMatD0=    1 NMtDS0=    0 NMtDT0=    0
 Symmetry not used in FoFCou.
 Inv3:  Mode=1 IEnd=    36624108.
 Iteration    1 A*A^-1 deviation from unit magnitude is 1.03D-14 for    125.
 Iteration    1 A*A^-1 deviation from orthogonality  is 4.93D-15 for   3473   1302.
 Iteration    1 A^-1*A deviation from unit magnitude is 9.33D-15 for    118.
 Iteration    1 A^-1*A deviation from orthogonality  is 4.17D-15 for   3018    128.
 E= -1310.44186856566    
 DIIS: error= 2.30D-02 at cycle   1 NSaved=   1.
 NSaved= 1 IEnMin= 1 EnMin= -1310.44186856566     IErMin= 1 ErrMin= 2.30D-02
 ErrMax= 2.30D-02  0.00D+00 EMaxC= 1.00D-01 BMatC= 8.84D-01 BMatP= 8.84D-01
 IDIUse=3 WtCom= 7.70D-01 WtEn= 2.30D-01
 Coeff-Com:  0.100D+01
 Coeff-En:   0.100D+01
 Coeff:      0.100D+01
 Gap=     0.143 Goal=   None    Shift=    0.000
 GapD=    0.143 DampG=1.000 DampE=0.500 DampFc=0.5000 IDamp=-1.
 Damping current iteration by 5.00D-01
 RMSDP=1.43D-03 MaxDP=8.47D-02              OVMax= 2.62D-01

 Cycle   2  Pass 1  IDiag  1:
 RMSU=  7.11D-04    CP:  9.82D-01
 E= -1310.74453691188     Delta-E=       -0.302668346223 Rises=F Damp=T
 DIIS: error= 5.65D-03 at cycle   2 NSaved=   2.
 NSaved= 2 IEnMin= 2 EnMin= -1310.74453691188     IErMin= 2 ErrMin= 5.65D-03
 ErrMax= 5.65D-03  0.00D+00 EMaxC= 1.00D-01 BMatC= 9.16D-02 BMatP= 8.84D-01
 IDIUse=3 WtCom= 9.44D-01 WtEn= 5.65D-02
 Coeff-Com: -0.328D-01 0.103D+01
 Coeff-En:   0.000D+00 0.100D+01
 Coeff:     -0.310D-01 0.103D+01
 Gap=     0.185 Goal=   None    Shift=    0.000
 RMSDP=6.29D-04 MaxDP=4.37D-02 DE=-3.03D-01 OVMax= 2.09D-01

 Cycle   3  Pass 1  IDiag  1:
 RMSU=  5.64D-04    CP:  9.68D-01  1.38D+00
 E= -1311.04485410894     Delta-E=       -0.300317197063 Rises=F Damp=F
 DIIS: error= 8.66D-03 at cycle   3 NSaved=   3.
 NSaved= 3 IEnMin= 3 EnMin= -1311.04485410894     IErMin= 2 ErrMin= 5.65D-03
 ErrMax= 8.66D-03  0.00D+00 EMaxC= 1.00D-01 BMatC= 5.11D-02 BMatP= 9.16D-02
 IDIUse=3 WtCom= 9.13D-01 WtEn= 8.66D-02
 Coeff-Com: -0.108D+00 0.468D+00 0.640D+00
 Coeff-En:   0.000D+00 0.000D+00 0.100D+01
 Coeff:     -0.984D-01 0.427D+00 0.671D+00
 Gap=     0.144 Goal=   None    Shift=    0.000
 RMSDP=1.76D-04 MaxDP=2.34D-02 DE=-3.00D-01 OVMax= 7.08D-02

 Cycle   4  Pass 1  IDiag  1:
 RMSU=  1.72D-04    CP:  9.69D-01  1.41D+00  9.42D-01
 E= -1311.07787967371     Delta-E=       -0.033025564761 Rises=F Damp=F
 DIIS: error= 2.78D-03 at cycle   4 NSaved=   4.
 NSaved= 4 IEnMin= 4 EnMin= -1311.07787967371     IErMin= 4 ErrMin= 2.78D-03
 ErrMax= 2.78D-03  0.00D+00 EMaxC= 1.00D-01 BMatC= 7.43D-03 BMatP= 5.11D-02
 IDIUse=3 WtCom= 9.72D-01 WtEn= 2.78D-02
 Coeff-Com: -0.331D-01 0.877D-01 0.325D+00 0.621D+00
 Coeff-En:   0.000D+00 0.000D+00 0.973D-01 0.903D+00
 Coeff:     -0.322D-01 0.853D-01 0.318D+00 0.629D+00
 Gap=     0.146 Goal=   None    Shift=    0.000
 RMSDP=6.39D-05 MaxDP=5.53D-03 DE=-3.30D-02 OVMax= 1.68D-02

 Cycle   5  Pass 1  IDiag  1:
 RMSU=  4.60D-05    CP:  9.68D-01  1.40D+00  9.74D-01  7.69D-01
 E= -1311.08353108980     Delta-E=       -0.005651416099 Rises=F Damp=F
 DIIS: error= 3.97D-04 at cycle   5 NSaved=   5.
 NSaved= 5 IEnMin= 5 EnMin= -1311.08353108980     IErMin= 5 ErrMin= 3.97D-04
 ErrMax= 3.97D-04  0.00D+00 EMaxC= 1.00D-01 BMatC= 2.45D-04 BMatP= 7.43D-03
 IDIUse=3 WtCom= 9.96D-01 WtEn= 3.97D-03
 Coeff-Com: -0.889D-02 0.159D-01 0.108D+00 0.270D+00 0.615D+00
 Coeff-En:   0.000D+00 0.000D+00 0.000D+00 0.000D+00 0.100D+01
 Coeff:     -0.886D-02 0.158D-01 0.107D+00 0.269D+00 0.617D+00
 Gap=     0.147 Goal=   None    Shift=    0.000
 RMSDP=1.48D-05 MaxDP=7.67D-04 DE=-5.65D-03 OVMax= 3.71D-03

 Cycle   6  Pass 1  IDiag  1:
 RMSU=  1.40D-05    CP:  9.68D-01  1.40D+00  9.72D-01  7.85D-01  9.27D-01
 E= -1311.08373494137     Delta-E=       -0.000203851565 Rises=F Damp=F
 DIIS: error= 1.04D-04 at cycle   6 NSaved=   6.
 NSaved= 6 IEnMin= 6 EnMin= -1311.08373494137     IErMin= 6 ErrMin= 1.04D-04
 ErrMax= 1.04D-04  0.00D+00 EMaxC= 1.00D-01 BMatC= 1.51D-05 BMatP= 2.45D-04
 IDIUse=3 WtCom= 9.99D-01 WtEn= 1.04D-03
 Coeff-Com: -0.232D-03-0.153D-02 0.926D-02 0.351D-01 0.213D+00 0.744D+00
 Coeff-En:   0.000D+00 0.000D+00 0.000D+00 0.000D+00 0.000D+00 0.100D+01
 Coeff:     -0.232D-03-0.153D-02 0.925D-02 0.351D-01 0.213D+00 0.744D+00
 Gap=     0.147 Goal=   None    Shift=    0.000
 RMSDP=6.01D-06 MaxDP=4.18D-04 DE=-2.04D-04 OVMax= 2.13D-03

 Cycle   7  Pass 1  IDiag  1:
 RMSU=  5.22D-06    CP:  9.68D-01  1.40D+00  9.75D-01  7.88D-01  9.80D-01
                    CP:  1.02D+00
 E= -1311.08375447343     Delta-E=       -0.000019532056 Rises=F Damp=F
 DIIS: error= 3.97D-05 at cycle   7 NSaved=   7.
 NSaved= 7 IEnMin= 7 EnMin= -1311.08375447343     IErMin= 7 ErrMin= 3.97D-05
 ErrMax= 3.97D-05  0.00D+00 EMaxC= 1.00D-01 BMatC= 2.39D-06 BMatP= 1.51D-05
 IDIUse=1 WtCom= 1.00D+00 WtEn= 0.00D+00
 Coeff-Com:  0.115D-02-0.294D-02-0.113D-01-0.234D-01 0.369D-02 0.289D+00
 Coeff-Com:  0.744D+00
 Coeff:      0.115D-02-0.294D-02-0.113D-01-0.234D-01 0.369D-02 0.289D+00
 Coeff:      0.744D+00
 Gap=     0.148 Goal=   None    Shift=    0.000
 RMSDP=3.10D-06 MaxDP=1.95D-04 DE=-1.95D-05 OVMax= 1.00D-03

 Cycle   8  Pass 1  IDiag  1:
 RMSU=  2.07D-06    CP:  9.68D-01  1.40D+00  9.75D-01  7.93D-01  1.01D+00
                    CP:  1.13D+00  1.08D+00
 E= -1311.08375837132     Delta-E=       -0.000003897899 Rises=F Damp=F
 DIIS: error= 1.97D-05 at cycle   8 NSaved=   8.
 NSaved= 8 IEnMin= 8 EnMin= -1311.08375837132     IErMin= 8 ErrMin= 1.97D-05
 ErrMax= 1.97D-05  0.00D+00 EMaxC= 1.00D-01 BMatC= 4.33D-07 BMatP= 2.39D-06
 IDIUse=1 WtCom= 1.00D+00 WtEn= 0.00D+00
 Coeff-Com:  0.486D-03-0.948D-03-0.594D-02-0.153D-01-0.293D-01 0.896D-02
 Coeff-Com:  0.324D+00 0.718D+00
 Coeff:      0.486D-03-0.948D-03-0.594D-02-0.153D-01-0.293D-01 0.896D-02
 Coeff:      0.324D+00 0.718D+00
 Gap=     0.148 Goal=   None    Shift=    0.000
 RMSDP=1.07D-06 MaxDP=6.13D-05 DE=-3.90D-06 OVMax= 6.20D-04

 Cycle   9  Pass 1  IDiag  1:
 RMSU=  7.22D-07    CP:  9.68D-01  1.40D+00  9.75D-01  7.93D-01  1.02D+00
                    CP:  1.15D+00  1.19D+00  1.02D+00
 E= -1311.08375914365     Delta-E=       -0.000000772328 Rises=F Damp=F
 DIIS: error= 5.35D-06 at cycle   9 NSaved=   9.
 NSaved= 9 IEnMin= 9 EnMin= -1311.08375914365     IErMin= 9 ErrMin= 5.35D-06
 ErrMax= 5.35D-06  0.00D+00 EMaxC= 1.00D-01 BMatC= 3.45D-08 BMatP= 4.33D-07
 IDIUse=1 WtCom= 1.00D+00 WtEn= 0.00D+00
 Coeff-Com: -0.213D-04 0.126D-03-0.145D-03-0.128D-02-0.784D-02-0.329D-01
 Coeff-Com: -0.130D-01 0.190D+00 0.865D+00
 Coeff:     -0.213D-04 0.126D-03-0.145D-03-0.128D-02-0.784D-02-0.329D-01
 Coeff:     -0.130D-01 0.190D+00 0.865D+00
 Gap=     0.148 Goal=   None    Shift=    0.000
 RMSDP=4.77D-07 MaxDP=3.18D-05 DE=-7.72D-07 OVMax= 2.13D-04

 Cycle  10  Pass 1  IDiag  1:
 RMSU=  2.78D-07    CP:  9.68D-01  1.40D+00  9.75D-01  7.93D-01  1.02D+00
                    CP:  1.16D+00  1.24D+00  1.13D+00  1.16D+00
 E= -1311.08375923126     Delta-E=       -0.000000087611 Rises=F Damp=F
 DIIS: error= 1.83D-06 at cycle  10 NSaved=  10.
 NSaved=10 IEnMin=10 EnMin= -1311.08375923126     IErMin=10 ErrMin= 1.83D-06
 ErrMax= 1.83D-06  0.00D+00 EMaxC= 1.00D-01 BMatC= 6.33D-09 BMatP= 3.45D-08
 IDIUse=1 WtCom= 1.00D+00 WtEn= 0.00D+00
 Coeff-Com: -0.713D-04 0.171D-03 0.702D-03 0.149D-02 0.834D-03-0.138D-01
 Coeff-Com: -0.478D-01-0.191D-01 0.338D+00 0.740D+00
 Coeff:     -0.713D-04 0.171D-03 0.702D-03 0.149D-02 0.834D-03-0.138D-01
 Coeff:     -0.478D-01-0.191D-01 0.338D+00 0.740D+00
 Gap=     0.148 Goal=   None    Shift=    0.000
 RMSDP=1.55D-07 MaxDP=9.60D-06 DE=-8.76D-08 OVMax= 8.48D-05

 Cycle  11  Pass 1  IDiag  1:
 RMSU=  9.41D-08    CP:  9.68D-01  1.40D+00  9.75D-01  7.93D-01  1.02D+00
                    CP:  1.17D+00  1.24D+00  1.17D+00  1.26D+00  1.03D+00
 E= -1311.08375924263     Delta-E=       -0.000000011366 Rises=F Damp=F
 DIIS: error= 7.27D-07 at cycle  11 NSaved=  11.
 NSaved=11 IEnMin=11 EnMin= -1311.08375924263     IErMin=11 ErrMin= 7.27D-07
 ErrMax= 7.27D-07  0.00D+00 EMaxC= 1.00D-01 BMatC= 1.06D-09 BMatP= 6.33D-09
 IDIUse=1 WtCom= 1.00D+00 WtEn= 0.00D+00
 Coeff-Com: -0.296D-04 0.624D-04 0.324D-03 0.808D-03 0.125D-02-0.278D-02
 Coeff-Com: -0.206D-01-0.309D-01 0.531D-01 0.333D+00 0.666D+00
 Coeff:     -0.296D-04 0.624D-04 0.324D-03 0.808D-03 0.125D-02-0.278D-02
 Coeff:     -0.206D-01-0.309D-01 0.531D-01 0.333D+00 0.666D+00
 Gap=     0.148 Goal=   None    Shift=    0.000
 RMSDP=4.93D-08 MaxDP=4.31D-06 DE=-1.14D-08 OVMax= 2.16D-05

 Cycle  12  Pass 1  IDiag  1:
 RMSU=  3.29D-08    CP:  9.68D-01  1.40D+00  9.75D-01  7.93D-01  1.02D+00
                    CP:  1.17D+00  1.25D+00  1.18D+00  1.29D+00  1.11D+00
                    CP:  1.04D+00
 E= -1311.08375924414     Delta-E=       -0.000000001512 Rises=F Damp=F
 DIIS: error= 2.21D-07 at cycle  12 NSaved=  12.
 NSaved=12 IEnMin=12 EnMin= -1311.08375924414     IErMin=12 ErrMin= 2.21D-07
 ErrMax= 2.21D-07  0.00D+00 EMaxC= 1.00D-01 BMatC= 1.39D-10 BMatP= 1.06D-09
 IDIUse=1 WtCom= 1.00D+00 WtEn= 0.00D+00
 Coeff-Com: -0.181D-05 0.148D-05 0.284D-04 0.114D-03 0.429D-03 0.874D-03
 Coeff-Com: -0.130D-02-0.950D-02-0.286D-01 0.274D-01 0.275D+00 0.736D+00
 Coeff:     -0.181D-05 0.148D-05 0.284D-04 0.114D-03 0.429D-03 0.874D-03
 Coeff:     -0.130D-02-0.950D-02-0.286D-01 0.274D-01 0.275D+00 0.736D+00
 Gap=     0.148 Goal=   None    Shift=    0.000
 RMSDP=2.14D-08 MaxDP=1.26D-06 DE=-1.51D-09 OVMax= 1.31D-05

 Cycle  13  Pass 1  IDiag  1:
 RMSU=  1.50D-08    CP:  9.68D-01  1.40D+00  9.75D-01  7.93D-01  1.02D+00
                    CP:  1.17D+00  1.25D+00  1.18D+00  1.30D+00  1.14D+00
                    CP:  1.15D+00  1.06D+00
 E= -1311.08375924430     Delta-E=       -0.000000000160 Rises=F Damp=F
 DIIS: error= 1.38D-07 at cycle  13 NSaved=  13.
 NSaved=13 IEnMin=13 EnMin= -1311.08375924430     IErMin=13 ErrMin= 1.38D-07
 ErrMax= 1.38D-07  0.00D+00 EMaxC= 1.00D-01 BMatC= 3.24D-11 BMatP= 1.39D-10
 IDIUse=1 WtCom= 1.00D+00 WtEn= 0.00D+00
 Coeff-Com:  0.307D-05-0.760D-05-0.324D-04-0.584D-04 0.438D-04 0.759D-03
 Coeff-Com:  0.239D-02 0.300D-03-0.202D-01-0.361D-01 0.197D-01 0.355D+00
 Coeff-Com:  0.678D+00
 Coeff:      0.307D-05-0.760D-05-0.324D-04-0.584D-04 0.438D-04 0.759D-03
 Coeff:      0.239D-02 0.300D-03-0.202D-01-0.361D-01 0.197D-01 0.355D+00
 Coeff:      0.678D+00
 Gap=     0.148 Goal=   None    Shift=    0.000
 RMSDP=1.05D-08 MaxDP=6.22D-07 DE=-1.60D-10 OVMax= 6.72D-06

 Cycle  14  Pass 1  IDiag  1:
 RMSU=  7.24D-09    CP:  9.68D-01  1.40D+00  9.75D-01  7.93D-01  1.02D+00
                    CP:  1.17D+00  1.25D+00  1.18D+00  1.30D+00  1.15D+00
                    CP:  1.19D+00  1.21D+00  1.13D+00
 E= -1311.08375924446     Delta-E=       -0.000000000163 Rises=F Damp=F
 DIIS: error= 7.35D-08 at cycle  14 NSaved=  14.
 NSaved=14 IEnMin=14 EnMin= -1311.08375924446     IErMin=14 ErrMin= 7.35D-08
 ErrMax= 7.35D-08  0.00D+00 EMaxC= 1.00D-01 BMatC= 6.84D-12 BMatP= 3.24D-11
 IDIUse=1 WtCom= 1.00D+00 WtEn= 0.00D+00
 Coeff-Com:  0.163D-05-0.346D-05-0.214D-04-0.524D-04-0.670D-04 0.102D-03
 Coeff-Com:  0.142D-02 0.228D-02-0.258D-02-0.234D-01-0.618D-01 0.503D-02
 Coeff-Com:  0.301D+00 0.778D+00
 Coeff:      0.163D-05-0.346D-05-0.214D-04-0.524D-04-0.670D-04 0.102D-03
 Coeff:      0.142D-02 0.228D-02-0.258D-02-0.234D-01-0.618D-01 0.503D-02
 Coeff:      0.301D+00 0.778D+00
 Gap=     0.148 Goal=   None    Shift=    0.000
 RMSDP=6.75D-09 MaxDP=4.65D-07 DE=-1.63D-10 OVMax= 4.82D-06

 Error on total polarization charges =  0.01925
 SCF Done:  E(RM062X) =  -1311.08375924     A.U. after   14 cycles
            NFock= 14  Conv=0.67D-08     -V/T= 2.0052
 KE= 1.304281852455D+03 PE=-7.679839358235D+03 EE= 2.755269555633D+03
 Leave Link  502 at Fri Nov  7 10:55:14 2025, MaxMem= 30870077440 cpu:           22676.9 elap:             360.4
 (Enter /public/software/gauss/g16/l601.exe)
 Copying SCF densities to generalized density rwf, IOpCl= 0 IROHF=0.

 **********************************************************************

            Population analysis using the SCF density.

 **********************************************************************

 Orbital symmetries:
       Occupied  (A) (A) (A) (A) (A) (A) (A) (A) (A) (A) (A) (A)
                 (A) (A) (A) (A) (A) (A) (A) (A) (A) (A) (A) (A)
                 (A) (A) (A) (A) (A) (A) (A) (A) (A) (A) (A) (A)
                 (A) (A) (A) (A) (A) (A) (A) (A) (A) (A) (A) (A)
                 (A) (A) (A) (A) (A) (A) (A) (A) (A) (A) (A) (A)
                 (A) (A) (A) (A) (A) (A) (A) (A) (A) (A) (A) (A)
                 (A) (A) (A) (A) (A) (A) (A) (A) (A) (A) (A) (A)
                 (A) (A) (A) (A) (A) (A) (A) (A) (A) (A) (A) (A)
                 (A) (A)
       Virtual   (A) (A) (A) (A) (A) (A) (A) (A) (A) (A) (A) (A)
                 (A) (A) (A) (A) (A) (A) (A) (A) (A) (A) (A) (A)
                 (A) (A) (A) (A) (A) (A) (A) (A) (A) (A) (A) (A)
                 (A) (A) (A) (A) (A) (A) (A) (A) (A) (A) (A) (A)
                 (A) (A) (A) (A) (A) (A) (A) (A) (A) (A) (A) (A)
                 (A) (A) (A) (A) (A) (A) (A) (A) (A) (A) (A) (A)
                 (A) (A) (A) (A) (A) (A) (A) (A) (A) (A) (A) (A)
                 (A) (A) (A) (A) (A) (A) (A) (A) (A) (A) (A) (A)
                 (A) (A) (A) (A) (A) (A) (A) (A) (A) (A) (A) (A)
                 (A) (A) (A) (A) (A) (A) (A) (A) (A) (A) (A) (A)
                 (A) (A) (A) (A) (A) (A) (A) (A) (A) (A) (A) (A)
                 (A) (A) (A) (A) (A) (A) (A) (A) (A) (A) (A) (A)
                 (A) (A) (A) (A) (A) (A) (A) (A) (A) (A) (A) (A)
                 (A) (A) (A) (A) (A) (A) (A) (A) (A) (A) (A) (A)
                 (A) (A) (A) (A) (A) (A) (A) (A) (A) (A) (A) (A)
                 (A) (A) (A) (A) (A) (A) (A) (A) (A) (A) (A) (A)
                 (A) (A) (A) (A) (A) (A) (A) (A) (A) (A) (A) (A)
                 (A) (A) (A) (A) (A) (A) (A) (A) (A) (A) (A) (A)
                 (A) (A) (A) (A) (A) (A) (A) (A) (A) (A) (A) (A)
                 (A) (A) (A) (A) (A) (A) (A) (A) (A) (A) (A) (A)
                 (A) (A) (A) (A) (A) (A) (A) (A) (A) (A) (A) (A)
                 (A) (A) (A) (A) (A) (A) (A) (A) (A) (A) (A) (A)
                 (A) (A) (A) (A) (A) (A) (A) (A) (A) (A) (A) (A)
                 (A) (A) (A) (A) (A) (A) (A) (A) (A) (A) (A) (A)
                 (A) (A) (A) (A) (A) (A) (A) (A) (A) (A) (A) (A)
                 (A) (A) (A) (A) (A) (A) (A) (A) (A) (A) (A) (A)
                 (A) (A) (A) (A) (A) (A) (A) (A) (A) (A) (A) (A)
                 (A) (A) (A) (A) (A) (A) (A) (A) (A) (A) (A) (A)
                 (A) (A) (A) (A) (A) (A) (A) (A) (A) (A) (A) (A)
                 (A) (A) (A) (A) (A) (A) (A) (A) (A) (A) (A) (A)
                 (A) (A) (A) (A) (A) (A) (A) (A) (A) (A) (A) (A)
                 (A) (A) (A) (A) (A) (A) (A) (A) (A) (A) (A) (A)
                 (A) (A) (A) (A) (A) (A) (A) (A) (A) (A) (A) (A)
                 (A) (A) (A) (A) (A) (A) (A) (A) (A) (A) (A) (A)
                 (A) (A) (A) (A) (A) (A) (A) (A) (A) (A) (A) (A)
                 (A) (A) (A) (A) (A) (A) (A) (A) (A) (A) (A) (A)
                 (A) (A) (A) (A) (A) (A) (A) (A) (A) (A) (A) (A)
                 (A) (A) (A) (A) (A) (A) (A) (A) (A) (A) (A) (A)
                 (A) (A) (A) (A) (A) (A) (A) (A) (A) (A) (A) (A)
                 (A) (A) (A) (A) (A) (A) (A) (A) (A) (A) (A) (A)
                 (A) (A) (A) (A) (A) (A) (A) (A) (A) (A) (A) (A)
                 (A) (A) (A) (A) (A) (A) (A) (A) (A) (A) (A) (A)
                 (A) (A) (A) (A) (A) (A) (A) (A) (A) (A) (A) (A)
                 (A) (A) (A) (A) (A) (A) (A) (A) (A) (A) (A) (A)
                 (A) (A) (A) (A) (A) (A) (A) (A) (A) (A) (A) (A)
                 (A) (A) (A) (A) (A) (A) (A) (A) (A) (A) (A) (A)
                 (A) (A) (A) (A) (A) (A) (A) (A) (A) (A) (A) (A)
                 (A) (A) (A) (A) (A) (A) (A) (A) (A) (A) (A) (A)
                 (A) (A) (A) (A) (A) (A) (A) (A) (A) (A) (A) (A)
                 (A) (A) (A) (A) (A) (A) (A) (A) (A) (A) (A) (A)
                 (A) (A) (A) (A) (A) (A) (A) (A) (A) (A) (A) (A)
                 (A) (A) (A) (A) (A) (A) (A) (A) (A) (A) (A) (A)
                 (A) (A) (A) (A) (A) (A) (A) (A) (A) (A) (A) (A)
                 (A) (A) (A) (A) (A) (A) (A) (A) (A) (A) (A) (A)
                 (A) (A) (A) (A) (A) (A) (A) (A) (A) (A) (A) (A)
                 (A) (A) (A) (A) (A) (A) (A) (A) (A) (A) (A) (A)
                 (A) (A) (A) (A) (A) (A) (A) (A) (A) (A) (A) (A)
                 (A) (A) (A) (A) (A) (A) (A) (A) (A) (A) (A) (A)
                 (A) (A) (A) (A) (A) (A) (A) (A) (A) (A) (A) (A)
                 (A) (A) (A) (A) (A) (A) (A) (A) (A) (A) (A) (A)
                 (A) (A) (A) (A) (A) (A) (A) (A) (A) (A) (A) (A)
                 (A) (A) (A) (A) (A) (A) (A) (A) (A) (A) (A) (A)
                 (A) (A) (A) (A) (A) (A) (A) (A) (A) (A) (A) (A)
                 (A) (A) (A) (A) (A) (A) (A) (A) (A) (A) (A) (A)
                 (A) (A) (A) (A) (A) (A) (A) (A) (A) (A) (A) (A)
                 (A) (A) (A) (A) (A) (A) (A) (A) (A) (A) (A) (A)
                 (A) (A) (A) (A) (A) (A) (A) (A) (A) (A) (A) (A)
                 (A) (A) (A) (A) (A) (A) (A) (A) (A) (A) (A) (A)
                 (A) (A) (A) (A) (A) (A) (A) (A) (A) (A) (A) (A)
                 (A) (A) (A) (A) (A) (A) (A) (A) (A) (A) (A) (A)
                 (A) (A) (A) (A) (A) (A) (A) (A) (A) (A) (A) (A)
                 (A) (A) (A) (A) (A) (A) (A) (A) (A) (A) (A) (A)
                 (A) (A) (A) (A) (A) (A) (A) (A) (A) (A) (A) (A)
                 (A) (A) (A) (A) (A) (A) (A) (A) (A) (A) (A) (A)
                 (A) (A) (A) (A) (A) (A) (A) (A) (A) (A) (A) (A)
                 (A) (A) (A) (A) (A) (A) (A) (A) (A) (A) (A) (A)
                 (A) (A) (A) (A) (A) (A) (A) (A) (A) (A) (A) (A)
                 (A) (A) (A) (A) (A) (A) (A) (A) (A) (A) (A) (A)
                 (A) (A) (A) (A) (A) (A) (A) (A) (A) (A) (A) (A)
                 (A) (A) (A) (A) (A) (A) (A) (A) (A) (A) (A) (A)
                 (A) (A) (A) (A) (A) (A) (A) (A) (A) (A) (A) (A)
                 (A) (A) (A) (A) (A) (A) (A) (A) (A) (A) (A) (A)
                 (A) (A) (A) (A) (A) (A) (A) (A) (A) (A)
 The electronic state is 1-A.
 Alpha  occ. eigenvalues --  -25.20950 -25.20689 -19.67673 -19.67669 -15.01179
 Alpha  occ. eigenvalues --  -14.79258 -14.78840 -10.61651 -10.61475 -10.59527
 Alpha  occ. eigenvalues --  -10.59294 -10.59197 -10.58733 -10.58716 -10.57834
 Alpha  occ. eigenvalues --  -10.57784 -10.57696 -10.57311 -10.57091 -10.56967
 Alpha  occ. eigenvalues --  -10.56942 -10.56873 -10.56737 -10.55907 -10.55201
 Alpha  occ. eigenvalues --  -10.54620 -10.54527  -7.13711  -1.36538  -1.32791
 Alpha  occ. eigenvalues --   -1.29542  -1.18028  -1.11201  -1.09221  -1.00594
 Alpha  occ. eigenvalues --   -0.95097  -0.93334  -0.91743  -0.91136  -0.88801
 Alpha  occ. eigenvalues --   -0.87522  -0.87219  -0.83032  -0.80778  -0.80113
 Alpha  occ. eigenvalues --   -0.76302  -0.72605  -0.71124  -0.70409  -0.68979
 Alpha  occ. eigenvalues --   -0.67658  -0.66099  -0.65729  -0.65010  -0.63540
 Alpha  occ. eigenvalues --   -0.63139  -0.62592  -0.61720  -0.60522  -0.58908
 Alpha  occ. eigenvalues --   -0.58663  -0.57400  -0.55566  -0.55170  -0.53907
 Alpha  occ. eigenvalues --   -0.53677  -0.52733  -0.52341  -0.51680  -0.51580
 Alpha  occ. eigenvalues --   -0.51183  -0.50864  -0.49149  -0.49043  -0.48436
 Alpha  occ. eigenvalues --   -0.47845  -0.47527  -0.47418  -0.47045  -0.46718
 Alpha  occ. eigenvalues --   -0.46607  -0.45226  -0.44577  -0.44224  -0.42767
 Alpha  occ. eigenvalues --   -0.42362  -0.42142  -0.41454  -0.40927  -0.39531
 Alpha  occ. eigenvalues --   -0.39466  -0.38122  -0.35051  -0.33820  -0.33003
 Alpha  occ. eigenvalues --   -0.32072  -0.30067  -0.25096
 Alpha virt. eigenvalues --   -0.10323  -0.07441  -0.02659  -0.00392   0.02438
 Alpha virt. eigenvalues --    0.05574   0.06722   0.07669   0.07829   0.08024
 Alpha virt. eigenvalues --    0.08488   0.09057   0.09805   0.10327   0.10573
 Alpha virt. eigenvalues --    0.11141   0.11420   0.11598   0.12078   0.12904
 Alpha virt. eigenvalues --    0.13033   0.13320   0.13787   0.14417   0.14785
 Alpha virt. eigenvalues --    0.14930   0.15272   0.15641   0.16704   0.17065
 Alpha virt. eigenvalues --    0.17409   0.17939   0.18350   0.19539   0.19782
 Alpha virt. eigenvalues --    0.19814   0.20865   0.20889   0.21499   0.21809
 Alpha virt. eigenvalues --    0.22245   0.22563   0.23134   0.23256   0.23795
 Alpha virt. eigenvalues --    0.24422   0.24541   0.24741   0.24930   0.25206
 Alpha virt. eigenvalues --    0.25926   0.26186   0.26514   0.26886   0.27066
 Alpha virt. eigenvalues --    0.27949   0.27992   0.28480   0.28755   0.29205
 Alpha virt. eigenvalues --    0.29525   0.30192   0.30797   0.31029   0.31540
 Alpha virt. eigenvalues --    0.31654   0.31759   0.32538   0.33138   0.33873
 Alpha virt. eigenvalues --    0.34194   0.34520   0.34865   0.35318   0.35783
 Alpha virt. eigenvalues --    0.35977   0.36020   0.36283   0.36633   0.37066
 Alpha virt. eigenvalues --    0.37183   0.37515   0.38122   0.38697   0.39107
 Alpha virt. eigenvalues --    0.39275   0.39513   0.40016   0.40059   0.40582
 Alpha virt. eigenvalues --    0.40605   0.40874   0.41634   0.41842   0.42152
 Alpha virt. eigenvalues --    0.42331   0.42940   0.43319   0.43624   0.44218
 Alpha virt. eigenvalues --    0.44512   0.44979   0.45020   0.45483   0.45788
 Alpha virt. eigenvalues --    0.46403   0.46694   0.47144   0.47552   0.48061
 Alpha virt. eigenvalues --    0.48193   0.48455   0.49077   0.49225   0.49612
 Alpha virt. eigenvalues --    0.49952   0.49973   0.50341   0.51198   0.51726
 Alpha virt. eigenvalues --    0.52348   0.52859   0.53006   0.53382   0.54546
 Alpha virt. eigenvalues --    0.54741   0.55045   0.55068   0.55541   0.55999
 Alpha virt. eigenvalues --    0.56226   0.56799   0.57260   0.57876   0.58487
 Alpha virt. eigenvalues --    0.58949   0.59187   0.59421   0.60446   0.60721
 Alpha virt. eigenvalues --    0.61475   0.61543   0.61733   0.62312   0.62671
 Alpha virt. eigenvalues --    0.63052   0.63636   0.64294   0.64619   0.65126
 Alpha virt. eigenvalues --    0.65653   0.65978   0.66694   0.66728   0.67062
 Alpha virt. eigenvalues --    0.67327   0.68204   0.68804   0.68993   0.69639
 Alpha virt. eigenvalues --    0.69855   0.70040   0.70493   0.70837   0.71049
 Alpha virt. eigenvalues --    0.71595   0.71798   0.72832   0.72974   0.73658
 Alpha virt. eigenvalues --    0.73954   0.74590   0.74957   0.75337   0.75794
 Alpha virt. eigenvalues --    0.76168   0.76383   0.77211   0.77699   0.78497
 Alpha virt. eigenvalues --    0.78977   0.79235   0.79510   0.80067   0.80140
 Alpha virt. eigenvalues --    0.80693   0.81452   0.81747   0.82454   0.82775
 Alpha virt. eigenvalues --    0.83013   0.83991   0.84459   0.84719   0.85874
 Alpha virt. eigenvalues --    0.86026   0.86821   0.87658   0.87985   0.88299
 Alpha virt. eigenvalues --    0.88732   0.89150   0.90002   0.90895   0.91510
 Alpha virt. eigenvalues --    0.91861   0.91997   0.92349   0.92855   0.93428
 Alpha virt. eigenvalues --    0.93997   0.94224   0.94366   0.94750   0.95705
 Alpha virt. eigenvalues --    0.96303   0.96807   0.97146   0.97814   0.97963
 Alpha virt. eigenvalues --    0.99243   0.99374   1.00027   1.00487   1.00547
 Alpha virt. eigenvalues --    1.01547   1.01892   1.02043   1.02656   1.03134
 Alpha virt. eigenvalues --    1.03934   1.04366   1.05078   1.05591   1.06118
 Alpha virt. eigenvalues --    1.06429   1.07252   1.07828   1.08676   1.09058
 Alpha virt. eigenvalues --    1.09115   1.09433   1.09634   1.10291   1.11129
 Alpha virt. eigenvalues --    1.12421   1.12860   1.13223   1.13693   1.14912
 Alpha virt. eigenvalues --    1.15441   1.15486   1.16410   1.16493   1.17383
 Alpha virt. eigenvalues --    1.17992   1.18273   1.18879   1.19417   1.19763
 Alpha virt. eigenvalues --    1.20355   1.20977   1.21424   1.21993   1.22877
 Alpha virt. eigenvalues --    1.23224   1.23519   1.24280   1.24618   1.25297
 Alpha virt. eigenvalues --    1.25669   1.26402   1.27958   1.28117   1.28623
 Alpha virt. eigenvalues --    1.28787   1.29342   1.29741   1.30080   1.31034
 Alpha virt. eigenvalues --    1.31655   1.32342   1.32917   1.33374   1.33966
 Alpha virt. eigenvalues --    1.34512   1.35489   1.35767   1.36363   1.36610
 Alpha virt. eigenvalues --    1.37039   1.37772   1.38691   1.38863   1.39877
 Alpha virt. eigenvalues --    1.40251   1.40967   1.41275   1.42308   1.42489
 Alpha virt. eigenvalues --    1.43234   1.44079   1.44467   1.45197   1.45718
 Alpha virt. eigenvalues --    1.46018   1.46615   1.47478   1.48163   1.48504
 Alpha virt. eigenvalues --    1.48919   1.49484   1.49853   1.50334   1.50976
 Alpha virt. eigenvalues --    1.51731   1.51823   1.51989   1.52193   1.52505
 Alpha virt. eigenvalues --    1.53339   1.53718   1.54245   1.54567   1.55306
 Alpha virt. eigenvalues --    1.55954   1.56565   1.57453   1.57842   1.58088
 Alpha virt. eigenvalues --    1.58425   1.59038   1.59646   1.60382   1.60869
 Alpha virt. eigenvalues --    1.61688   1.62071   1.62821   1.63035   1.63371
 Alpha virt. eigenvalues --    1.64144   1.65424   1.65934   1.66193   1.66557
 Alpha virt. eigenvalues --    1.66750   1.67868   1.68880   1.69021   1.69393
 Alpha virt. eigenvalues --    1.69989   1.70928   1.71373   1.72156   1.72340
 Alpha virt. eigenvalues --    1.73690   1.74260   1.74680   1.76208   1.76922
 Alpha virt. eigenvalues --    1.77176   1.77893   1.78365   1.79049   1.79735
 Alpha virt. eigenvalues --    1.80115   1.80570   1.80901   1.82195   1.82907
 Alpha virt. eigenvalues --    1.84029   1.84668   1.84969   1.85337   1.86487
 Alpha virt. eigenvalues --    1.86945   1.87780   1.88808   1.89840   1.90098
 Alpha virt. eigenvalues --    1.90145   1.90940   1.91273   1.93142   1.93881
 Alpha virt. eigenvalues --    1.94984   1.96276   1.97139   1.97704   1.98922
 Alpha virt. eigenvalues --    2.00309   2.00385   2.01098   2.01722   2.02124
 Alpha virt. eigenvalues --    2.02484   2.03006   2.03397   2.05341   2.06016
 Alpha virt. eigenvalues --    2.07546   2.07702   2.08153   2.08656   2.09288
 Alpha virt. eigenvalues --    2.10318   2.10514   2.11510   2.12718   2.14041
 Alpha virt. eigenvalues --    2.14741   2.15466   2.16123   2.17129   2.17262
 Alpha virt. eigenvalues --    2.18649   2.18981   2.20177   2.21444   2.21633
 Alpha virt. eigenvalues --    2.22467   2.22897   2.23469   2.24980   2.25310
 Alpha virt. eigenvalues --    2.26303   2.26665   2.27155   2.28437   2.29426
 Alpha virt. eigenvalues --    2.31904   2.31965   2.33340   2.34821   2.34930
 Alpha virt. eigenvalues --    2.36445   2.36672   2.37583   2.38900   2.39074
 Alpha virt. eigenvalues --    2.39552   2.40473   2.40966   2.42077   2.43353
 Alpha virt. eigenvalues --    2.43752   2.44968   2.46114   2.47172   2.48009
 Alpha virt. eigenvalues --    2.49194   2.51663   2.52861   2.53386   2.53765
 Alpha virt. eigenvalues --    2.54611   2.55452   2.56528   2.57142   2.57751
 Alpha virt. eigenvalues --    2.59843   2.61037   2.61681   2.62071   2.62585
 Alpha virt. eigenvalues --    2.62660   2.63463   2.64038   2.64977   2.65444
 Alpha virt. eigenvalues --    2.66326   2.67250   2.67887   2.68070   2.69082
 Alpha virt. eigenvalues --    2.69906   2.70243   2.70847   2.71619   2.72289
 Alpha virt. eigenvalues --    2.72595   2.73407   2.73897   2.74430   2.74811
 Alpha virt. eigenvalues --    2.75323   2.75349   2.75724   2.76626   2.77218
 Alpha virt. eigenvalues --    2.77847   2.78623   2.79029   2.79955   2.80530
 Alpha virt. eigenvalues --    2.80944   2.81458   2.81786   2.82373   2.82487
 Alpha virt. eigenvalues --    2.82950   2.83485   2.83780   2.84569   2.85093
 Alpha virt. eigenvalues --    2.86408   2.86727   2.87055   2.88061   2.88684
 Alpha virt. eigenvalues --    2.89075   2.89565   2.89802   2.89965   2.91169
 Alpha virt. eigenvalues --    2.91243   2.91838   2.92260   2.92533   2.93380
 Alpha virt. eigenvalues --    2.93821   2.94238   2.94720   2.95332   2.95591
 Alpha virt. eigenvalues --    2.95848   2.96288   2.97046   2.97190   2.97668
 Alpha virt. eigenvalues --    2.98238   2.98435   2.98969   2.99636   3.00273
 Alpha virt. eigenvalues --    3.00801   3.01040   3.01389   3.01987   3.02382
 Alpha virt. eigenvalues --    3.02696   3.03488   3.03664   3.04000   3.04592
 Alpha virt. eigenvalues --    3.05025   3.05391   3.05610   3.06083   3.06435
 Alpha virt. eigenvalues --    3.06976   3.07689   3.08081   3.08304   3.08899
 Alpha virt. eigenvalues --    3.09694   3.10119   3.10724   3.11143   3.11837
 Alpha virt. eigenvalues --    3.11974   3.12625   3.13500   3.13720   3.14608
 Alpha virt. eigenvalues --    3.15283   3.15673   3.16340   3.16524   3.16878
 Alpha virt. eigenvalues --    3.17096   3.18159   3.18299   3.18717   3.18851
 Alpha virt. eigenvalues --    3.19106   3.19908   3.20138   3.20960   3.21329
 Alpha virt. eigenvalues --    3.21456   3.22010   3.22487   3.22977   3.23666
 Alpha virt. eigenvalues --    3.24068   3.24546   3.24706   3.25959   3.26269
 Alpha virt. eigenvalues --    3.26630   3.27262   3.27687   3.27770   3.28489
 Alpha virt. eigenvalues --    3.29110   3.29322   3.30168   3.30528   3.30728
 Alpha virt. eigenvalues --    3.30914   3.31577   3.31988   3.32143   3.33181
 Alpha virt. eigenvalues --    3.33590   3.34559   3.35171   3.36137   3.36970
 Alpha virt. eigenvalues --    3.37639   3.38569   3.39068   3.39834   3.40038
 Alpha virt. eigenvalues --    3.40693   3.41209   3.41647   3.41908   3.42480
 Alpha virt. eigenvalues --    3.42891   3.43003   3.43701   3.44140   3.45456
 Alpha virt. eigenvalues --    3.46491   3.46827   3.47467   3.48040   3.48121
 Alpha virt. eigenvalues --    3.49562   3.49841   3.50167   3.50518   3.50610
 Alpha virt. eigenvalues --    3.51024   3.52144   3.52623   3.53415   3.54269
 Alpha virt. eigenvalues --    3.54486   3.55442   3.56398   3.56839   3.57480
 Alpha virt. eigenvalues --    3.58002   3.58443   3.59330   3.59652   3.60644
 Alpha virt. eigenvalues --    3.61381   3.61540   3.62857   3.63249   3.63538
 Alpha virt. eigenvalues --    3.64019   3.64800   3.65075   3.65722   3.67478
 Alpha virt. eigenvalues --    3.68078   3.68513   3.69380   3.70606   3.70938
 Alpha virt. eigenvalues --    3.71269   3.71854   3.72138   3.72604   3.73186
 Alpha virt. eigenvalues --    3.73705   3.74334   3.75220   3.75420   3.75928
 Alpha virt. eigenvalues --    3.76801   3.77137   3.77842   3.78379   3.79142
 Alpha virt. eigenvalues --    3.80015   3.80282   3.80626   3.81051   3.82129
 Alpha virt. eigenvalues --    3.82956   3.83343   3.84481   3.84854   3.85838
 Alpha virt. eigenvalues --    3.86103   3.86257   3.87161   3.87484   3.88012
 Alpha virt. eigenvalues --    3.88751   3.89217   3.89628   3.90650   3.90823
 Alpha virt. eigenvalues --    3.91616   3.92043   3.92963   3.93928   3.94621
 Alpha virt. eigenvalues --    3.94994   3.95217   3.95895   3.96417   3.96615
 Alpha virt. eigenvalues --    3.97614   3.98386   3.99232   3.99344   3.99583
 Alpha virt. eigenvalues --    4.00286   4.01020   4.01388   4.01856   4.02432
 Alpha virt. eigenvalues --    4.03532   4.04109   4.04610   4.04995   4.05167
 Alpha virt. eigenvalues --    4.05633   4.05978   4.06747   4.07407   4.08098
 Alpha virt. eigenvalues --    4.08438   4.09840   4.10164   4.11385   4.12523
 Alpha virt. eigenvalues --    4.13104   4.13346   4.13648   4.14705   4.15248
 Alpha virt. eigenvalues --    4.15744   4.16221   4.16696   4.16979   4.18419
 Alpha virt. eigenvalues --    4.18967   4.20009   4.20570   4.20984   4.21461
 Alpha virt. eigenvalues --    4.22132   4.23090   4.23197   4.23467   4.23818
 Alpha virt. eigenvalues --    4.24148   4.25435   4.26295   4.26917   4.27075
 Alpha virt. eigenvalues --    4.27881   4.29118   4.30476   4.31412   4.32282
 Alpha virt. eigenvalues --    4.32595   4.32865   4.34612   4.35300   4.36192
 Alpha virt. eigenvalues --    4.37578   4.38017   4.39881   4.40064   4.41111
 Alpha virt. eigenvalues --    4.41177   4.42966   4.43346   4.44258   4.45313
 Alpha virt. eigenvalues --    4.46321   4.46628   4.47211   4.48460   4.49589
 Alpha virt. eigenvalues --    4.49768   4.50072   4.51450   4.52849   4.54065
 Alpha virt. eigenvalues --    4.54463   4.55579   4.56194   4.57828   4.59698
 Alpha virt. eigenvalues --    4.59960   4.61802   4.62326   4.62802   4.64141
 Alpha virt. eigenvalues --    4.64596   4.64964   4.65137   4.66279   4.67957
 Alpha virt. eigenvalues --    4.68794   4.70347   4.70617   4.71906   4.72454
 Alpha virt. eigenvalues --    4.72884   4.73891   4.74627   4.75268   4.77252
 Alpha virt. eigenvalues --    4.78933   4.79849   4.80980   4.81694   4.82098
 Alpha virt. eigenvalues --    4.83758   4.85046   4.86153   4.87048   4.89216
 Alpha virt. eigenvalues --    4.89954   4.90892   4.91430   4.92011   4.92900
 Alpha virt. eigenvalues --    4.93415   4.93954   4.94320   4.94909   4.95051
 Alpha virt. eigenvalues --    4.95978   4.96903   4.98099   5.00642   5.02994
 Alpha virt. eigenvalues --    5.03185   5.04401   5.04984   5.05180   5.06129
 Alpha virt. eigenvalues --    5.07008   5.08257   5.08849   5.09392   5.10166
 Alpha virt. eigenvalues --    5.10473   5.10825   5.11793   5.13239   5.14229
 Alpha virt. eigenvalues --    5.14407   5.14785   5.15606   5.16378   5.17051
 Alpha virt. eigenvalues --    5.17756   5.19102   5.19413   5.20018   5.21642
 Alpha virt. eigenvalues --    5.21938   5.22821   5.24638   5.25281   5.25839
 Alpha virt. eigenvalues --    5.27242   5.27509   5.27695   5.28900   5.29300
 Alpha virt. eigenvalues --    5.29987   5.31910   5.32441   5.34401   5.34922
 Alpha virt. eigenvalues --    5.35646   5.36398   5.36911   5.37749   5.40069
 Alpha virt. eigenvalues --    5.41205   5.41827   5.42249   5.45343   5.46747
 Alpha virt. eigenvalues --    5.50112   5.51445   5.51918   5.53306   5.55095
 Alpha virt. eigenvalues --    5.55691   5.57407   5.58338   5.58608   5.60484
 Alpha virt. eigenvalues --    5.60710   5.62601   5.63771   5.65633   5.65812
 Alpha virt. eigenvalues --    5.67598   5.69591   5.74494   5.74835   5.78619
 Alpha virt. eigenvalues --    5.81386   5.82853   5.85558   5.86660   5.89118
 Alpha virt. eigenvalues --    5.91501   5.92337   5.94313   5.96219   5.97993
 Alpha virt. eigenvalues --    6.04432   6.11446   6.12747   6.22364   6.24988
 Alpha virt. eigenvalues --    6.27485   6.28167   6.35415   6.40373   6.41325
 Alpha virt. eigenvalues --    6.43319   6.48850   6.52422   6.76496   6.80785
 Alpha virt. eigenvalues --    6.83086   6.87159   6.93613   6.93850   6.96516
 Alpha virt. eigenvalues --    6.97180   6.98826   6.99368   7.04945   7.08486
 Alpha virt. eigenvalues --    7.10411   7.16724   7.20332   7.22200   7.23437
 Alpha virt. eigenvalues --    7.26715   7.32224   7.33633   7.34558   7.45656
 Alpha virt. eigenvalues --    7.51570   8.43253   8.45322   8.53397   8.56716
 Alpha virt. eigenvalues --    8.81782   8.84130   8.88735   8.90462   8.91066
 Alpha virt. eigenvalues --    8.97983  15.84147  22.83387  22.95116  23.02824
 Alpha virt. eigenvalues --   23.03789  23.15574  23.17158  23.22347  23.28405
 Alpha virt. eigenvalues --   23.28536  23.30583  23.33476  23.36312  23.41932
 Alpha virt. eigenvalues --   23.45850  23.50802  23.62750  23.72173  23.81335
 Alpha virt. eigenvalues --   23.90653  24.09092  32.57195  33.06305  33.18513
 Alpha virt. eigenvalues --   44.20174  44.23883  57.26952  57.47189
          Condensed to atoms (all electrons):
               1          2          3          4          5          6
     1  C    4.975825   0.297525  -0.069811  -0.008669  -0.001220  -0.000079
     2  C    0.297525   5.174950   0.399684  -0.086474   0.006535  -0.000528
     3  C   -0.069811   0.399684   5.113838   0.461502  -0.068727   0.003345
     4  C   -0.008669  -0.086474   0.461502   5.057548   0.422772  -0.057701
     5  C   -0.001220   0.006535  -0.068727   0.422772   5.062799   0.494915
     6  C   -0.000079  -0.000528   0.003345  -0.057701   0.494915   4.951517
     7  C   -0.000002  -0.000050  -0.000259   0.010342  -0.096896   0.550182
     8  C   -0.000009   0.000168  -0.001530   0.008362  -0.155210  -0.084892
     9  N    0.000018  -0.000358  -0.002002  -0.060733   0.372903  -0.099011
    10  B    0.001191   0.011689  -0.046190  -0.018575  -0.045276   0.003196
    11  F    0.000002   0.000262  -0.002633   0.003060  -0.005309  -0.000084
    12  F    0.000005   0.000055  -0.006065   0.002551  -0.005036   0.000444
    13  N    0.005831  -0.065099   0.367355  -0.071552   0.006213   0.000428
    14  C    0.006360  -0.081198  -0.126003   0.000961   0.000523  -0.000065
    15  C   -0.000981   0.025324   0.007108  -0.003584   0.000055  -0.000041
    16  C    0.000105   0.000992  -0.000918   0.000245  -0.000065  -0.000001
    17  C    0.000001   0.000069  -0.000060  -0.000018   0.000004   0.000000
    18  C   -0.000000   0.000027  -0.000013  -0.000000   0.000000  -0.000000
    19  C   -0.000000  -0.000001   0.000001  -0.000000   0.000000   0.000000
    20  C   -0.000003   0.000022   0.000013  -0.000000   0.000000   0.000000
    21  C   -0.000000  -0.000001   0.000000  -0.000000  -0.000000  -0.000000
    22  C    0.000000  -0.000000   0.000000  -0.000000   0.000000   0.000000
    23  N    0.000000   0.000000  -0.000000   0.000000   0.000000  -0.000000
    24  O    0.000000  -0.000000   0.000000   0.000000  -0.000000   0.000000
    25  O   -0.000000   0.000000  -0.000000  -0.000000  -0.000000   0.000000
    26  C    0.000000   0.000000  -0.000000  -0.000000  -0.000000   0.000000
    27  C    0.000000   0.000000  -0.000000  -0.000000   0.000000  -0.000000
    28  C   -0.051429   0.487718  -0.106025   0.033857  -0.004866   0.000003
    29  H    0.413242  -0.034087   0.020554  -0.000318   0.000124   0.000003
    30  H    0.420923  -0.038395  -0.012790  -0.000688  -0.000793  -0.000020
    31  H    0.425272  -0.042328  -0.012900  -0.001725  -0.000570  -0.000004
    32  H    0.001451  -0.001093   0.003310   0.335932   0.022123  -0.002204
    33  H    0.000007   0.000041   0.000114  -0.000804  -0.013563   0.397904
    34  H   -0.000000  -0.000000   0.000031  -0.000434   0.002352  -0.015513
    35  H    0.000000  -0.000005   0.000210  -0.000825   0.013050   0.001806
    36  H   -0.000004  -0.001731   0.002430  -0.000033   0.000138  -0.000005
    37  H    0.000057   0.001270  -0.000128  -0.000006   0.000003   0.000000
    38  H    0.000000   0.000010   0.000006  -0.000000   0.000000   0.000000
    39  H   -0.000000  -0.000000   0.000000   0.000000  -0.000000  -0.000000
    40  H   -0.000000  -0.000015   0.000002   0.000000   0.000000  -0.000000
    41  H   -0.000000   0.000001   0.000000  -0.000000   0.000000   0.000000
    42  H   -0.000000  -0.000000   0.000000   0.000000  -0.000000  -0.000000
    43  H    0.000000   0.000000   0.000000  -0.000000   0.000000   0.000000
    44  H   -0.000869   0.009065   0.004287  -0.000542   0.000088   0.000001
               7          8          9         10         11         12
     1  C   -0.000002  -0.000009   0.000018   0.001191   0.000002   0.000005
     2  C   -0.000050   0.000168  -0.000358   0.011689   0.000262   0.000055
     3  C   -0.000259  -0.001530  -0.002002  -0.046190  -0.002633  -0.006065
     4  C    0.010342   0.008362  -0.060733  -0.018575   0.003060   0.002551
     5  C   -0.096896  -0.155210   0.372903  -0.045276  -0.005309  -0.005036
     6  C    0.550182  -0.084892  -0.099011   0.003196  -0.000084   0.000444
     7  C    4.934548   0.564170  -0.104450  -0.004324  -0.000003  -0.000575
     8  C    0.564170   4.912888   0.453627  -0.023591  -0.008225   0.002670
     9  N   -0.104450   0.453627   6.312633   0.361431  -0.039908  -0.038476
    10  B   -0.004324  -0.023591   0.361431   3.349135   0.382080   0.343526
    11  F   -0.000003  -0.008225  -0.039908   0.382080   9.105907  -0.031215
    12  F   -0.000575   0.002670  -0.038476   0.343526  -0.031215   9.126875
    13  N   -0.000592   0.000695  -0.044577   0.350920  -0.046211  -0.038629
    14  C    0.000099  -0.001069   0.001674  -0.017629  -0.009410   0.000457
    15  C    0.000012  -0.000063   0.000178  -0.012221   0.004323  -0.010995
    16  C    0.000000  -0.000002  -0.000096  -0.002847  -0.001481   0.000258
    17  C   -0.000000   0.000000  -0.000001   0.000373   0.000067  -0.000066
    18  C    0.000000   0.000000   0.000000   0.000021   0.000001  -0.000006
    19  C   -0.000000  -0.000000  -0.000000  -0.000016  -0.000000   0.000000
[...]
    15  C    0.000802   0.003512  -0.000002  -0.000006  -0.000000   0.000000
    16  C   -0.004846   0.010947  -0.000706  -0.000077   0.000001  -0.000000
    17  C   -0.072365  -0.005560  -0.000972   0.000769  -0.000001  -0.000000
    18  C    0.345612  -0.089523   0.022771  -0.010239  -0.000000  -0.000007
    19  C    4.967473   0.409034  -0.027525  -0.060875  -0.000556   0.001344
    20  C    0.409034   5.126553   0.416563  -0.004257   0.004155  -0.004470
    21  C   -0.027525   0.416563   5.020891   0.385696  -0.044424   0.027297
    22  C   -0.060875  -0.004257   0.385696   5.259784   0.363278  -0.134733
    23  N   -0.000556   0.004155  -0.044424   0.363278   5.516728   0.360478
    24  O    0.001344  -0.004470   0.027297  -0.134733   0.360478   8.222010
    25  O    0.001367  -0.002370   0.017661  -0.133654   0.357782  -0.130361
    26  C   -0.020430  -0.104320   0.008663   0.392481  -0.039420   0.018093
    27  C    0.488439   0.032195  -0.108392  -0.020738   0.003447  -0.002404
    28  C    0.000093   0.000411  -0.000044  -0.000000   0.000000   0.000000
    29  H   -0.000000   0.000001   0.000000   0.000000  -0.000000  -0.000000
    30  H   -0.000000   0.000000  -0.000000   0.000000  -0.000000   0.000000
    31  H    0.000000   0.000000   0.000000  -0.000000   0.000000  -0.000000
    32  H   -0.000000   0.000000  -0.000000  -0.000000  -0.000000  -0.000000
    33  H    0.000000   0.000000  -0.000000   0.000000   0.000000  -0.000000
    34  H    0.000000  -0.000000  -0.000000   0.000000   0.000000   0.000000
    35  H   -0.000000   0.000000   0.000000  -0.000000  -0.000000   0.000000
    36  H    0.000191  -0.000098  -0.000004   0.000000   0.000000  -0.000000
    37  H    0.008649  -0.012771   0.000696   0.000065   0.000002   0.000001
    38  H    0.006595  -0.000382   0.000036  -0.000001   0.000000   0.000000
    39  H   -0.040526   0.009812  -0.000783   0.000233   0.000001  -0.000000
    40  H   -0.026683   0.403494  -0.007219   0.002755  -0.000116  -0.000141
    41  H   -0.000088   0.001004   0.382720  -0.012712  -0.003946   0.016601
    42  H    0.001588  -0.000693   0.002322  -0.015260  -0.004017   0.000730
    43  H   -0.031402   0.008399  -0.002004   0.006336  -0.000112   0.000002
    44  H    0.000067   0.000871   0.000112   0.000003  -0.000000  -0.000000
              25         26         27         28         29         30
     1  C   -0.000000   0.000000   0.000000  -0.051429   0.413242   0.420923
     2  C    0.000000   0.000000   0.000000   0.487718  -0.034087  -0.038395
     3  C   -0.000000  -0.000000  -0.000000  -0.106025   0.020554  -0.012790
     4  C   -0.000000  -0.000000  -0.000000   0.033857  -0.000318  -0.000688
     5  C   -0.000000  -0.000000   0.000000  -0.004866   0.000124  -0.000793
     6  C    0.000000   0.000000  -0.000000   0.000003   0.000003  -0.000020
     7  C    0.000000  -0.000000   0.000000  -0.000008  -0.000000   0.000002
     8  C   -0.000000   0.000000  -0.000000  -0.000010   0.000000  -0.000003
     9  N    0.000000   0.000000  -0.000000  -0.000364   0.000000  -0.000010
    10  B   -0.000000   0.000000  -0.000001  -0.003757  -0.000027  -0.000011
    11  F    0.000000   0.000000  -0.000000  -0.000459  -0.000000   0.000001
    12  F    0.000000  -0.000000   0.000000   0.000188  -0.000000  -0.000000
    13  N   -0.000000   0.000000  -0.000000  -0.115674  -0.000406   0.000020
    14  C   -0.000000  -0.000003   0.000010   0.535793   0.000996  -0.000454
    15  C   -0.000000   0.000013  -0.000263  -0.094803   0.000004   0.000046
    16  C   -0.000000  -0.000164   0.000746  -0.011768  -0.000006  -0.000002
    17  C   -0.000000  -0.002039   0.006432   0.000890  -0.000001   0.000000
    18  C   -0.000003   0.012961  -0.092188  -0.000114   0.000000   0.000000
    19  C    0.001367  -0.020430   0.488439   0.000093  -0.000000  -0.000000
    20  C   -0.002370  -0.104320   0.032195   0.000411   0.000001   0.000000
    21  C    0.017661   0.008663  -0.108392  -0.000044   0.000000  -0.000000
    22  C   -0.133654   0.392481  -0.020738  -0.000000   0.000000   0.000000
    23  N    0.357782  -0.039420   0.003447   0.000000  -0.000000  -0.000000
    24  O   -0.130361   0.018093  -0.002404   0.000000  -0.000000   0.000000
    25  O    8.224040   0.027660  -0.004312   0.000000   0.000000   0.000000
    26  C    0.027660   4.973941   0.476263   0.000001  -0.000000  -0.000000
    27  C   -0.004312   0.476263   4.944062  -0.000001   0.000000   0.000000
    28  C    0.000000   0.000001  -0.000001   5.027290  -0.022110   0.004171
    29  H    0.000000  -0.000000   0.000000  -0.022110   0.530646  -0.018199
    30  H    0.000000  -0.000000   0.000000   0.004171  -0.018199   0.521442
    31  H   -0.000000   0.000000  -0.000000   0.006652  -0.019028  -0.031381
    32  H    0.000000  -0.000000   0.000000  -0.000286   0.000090  -0.001312
    33  H    0.000000  -0.000000   0.000000  -0.000007   0.000000  -0.000004
    34  H    0.000000  -0.000000   0.000000   0.000000  -0.000000   0.000000
    35  H    0.000000   0.000000  -0.000000   0.000003   0.000000  -0.000000
    36  H    0.000000  -0.000000   0.000008   0.006754   0.000000  -0.000000
    37  H   -0.000000   0.000007   0.000240  -0.002707   0.000002  -0.000000
    38  H    0.000000   0.000036  -0.000365   0.000028  -0.000000  -0.000000
    39  H    0.000000  -0.000405  -0.005034   0.000002   0.000000   0.000000
    40  H    0.000001   0.000200   0.000936   0.000221   0.000000   0.000000
    41  H    0.000753   0.000583   0.000641   0.000001   0.000000  -0.000000
    42  H    0.016218   0.387214  -0.003738   0.000000  -0.000000  -0.000000
    43  H   -0.000108  -0.019942   0.414291   0.000000  -0.000000  -0.000000
    44  H    0.000000  -0.000001  -0.000007   0.373433   0.001544  -0.000090
              31         32         33         34         35         36
     1  C    0.425272   0.001451   0.000007  -0.000000   0.000000  -0.000004
     2  C   -0.042328  -0.001093   0.000041  -0.000000  -0.000005  -0.001731
     3  C   -0.012900   0.003310   0.000114   0.000031   0.000210   0.002430
     4  C   -0.001725   0.335932  -0.000804  -0.000434  -0.000825  -0.000033
     5  C   -0.000570   0.022123  -0.013563   0.002352   0.013050   0.000138
     6  C   -0.000004  -0.002204   0.397904  -0.015513   0.001806  -0.000005
     7  C   -0.000002  -0.000063  -0.011339   0.412467  -0.012863   0.000008
     8  C    0.000001  -0.000230   0.001908  -0.020782   0.402695  -0.000139
     9  N   -0.000002   0.003698   0.004693   0.003385  -0.027178  -0.000102
    10  B    0.000022   0.001265   0.000528   0.000027  -0.005877  -0.003342
    11  F   -0.000002   0.000049   0.000005   0.000013  -0.000956  -0.005619
    12  F    0.000000   0.000022   0.000006  -0.000006   0.002489   0.011607
    13  N    0.000292   0.002869   0.000040   0.000005   0.000057  -0.003999
    14  C   -0.000853   0.000117   0.000001  -0.000000  -0.000016   0.018222
    15  C   -0.000012   0.000052   0.000000   0.000000  -0.000012   0.364378
    16  C    0.000001   0.000001   0.000000   0.000000  -0.000000  -0.001290
    17  C   -0.000000   0.000000   0.000000  -0.000000   0.000000  -0.008513
    18  C   -0.000000   0.000000   0.000000   0.000000   0.000000  -0.000099
    19  C    0.000000  -0.000000   0.000000   0.000000  -0.000000   0.000191
    20  C    0.000000   0.000000   0.000000  -0.000000   0.000000  -0.000098
    21  C    0.000000  -0.000000  -0.000000  -0.000000   0.000000  -0.000004
    22  C   -0.000000  -0.000000   0.000000   0.000000  -0.000000   0.000000
    23  N    0.000000  -0.000000   0.000000   0.000000  -0.000000   0.000000
    24  O   -0.000000  -0.000000  -0.000000   0.000000   0.000000  -0.000000
    25  O   -0.000000   0.000000   0.000000   0.000000   0.000000   0.000000
    26  C    0.000000  -0.000000  -0.000000  -0.000000   0.000000  -0.000000
    27  C   -0.000000   0.000000   0.000000   0.000000  -0.000000   0.000008
    28  C    0.006652  -0.000286  -0.000007   0.000000   0.000003   0.006754
    29  H   -0.019028   0.000090   0.000000  -0.000000   0.000000   0.000000
    30  H   -0.031381  -0.001312  -0.000004   0.000000  -0.000000  -0.000000
    31  H    0.521576  -0.001146  -0.000000  -0.000000  -0.000000  -0.000000
    32  H   -0.001146   0.457800   0.001632  -0.000001   0.000002  -0.000002
    33  H   -0.000000   0.001632   0.433713  -0.000011  -0.000171  -0.000000
    34  H   -0.000000  -0.000001  -0.000011   0.441528   0.000439   0.000000
    35  H   -0.000000   0.000002  -0.000171   0.000439   0.445118  -0.000012
    36  H   -0.000000  -0.000002  -0.000000   0.000000  -0.000012   0.478278
    37  H    0.000000  -0.000000  -0.000000   0.000000   0.000000   0.002087
    38  H    0.000000  -0.000000   0.000000  -0.000000   0.000000   0.001464
    39  H   -0.000000   0.000000   0.000000   0.000000  -0.000000  -0.000035
    40  H   -0.000000  -0.000000  -0.000000  -0.000000   0.000000  -0.000033
    41  H    0.000000  -0.000000   0.000000  -0.000000   0.000000  -0.000000
    42  H    0.000000   0.000000  -0.000000  -0.000000   0.000000  -0.000000
    43  H   -0.000000  -0.000000   0.000000   0.000000   0.000000   0.000000
    44  H   -0.000062  -0.000012  -0.000000  -0.000000   0.000000   0.000018
              37         38         39         40         41         42
     1  C    0.000057   0.000000  -0.000000  -0.000000  -0.000000  -0.000000
     2  C    0.001270   0.000010  -0.000000  -0.000015   0.000001  -0.000000
     3  C   -0.000128   0.000006   0.000000   0.000002   0.000000   0.000000
     4  C   -0.000006  -0.000000   0.000000   0.000000  -0.000000   0.000000
     5  C    0.000003   0.000000  -0.000000   0.000000   0.000000  -0.000000
     6  C    0.000000   0.000000  -0.000000  -0.000000   0.000000  -0.000000
     7  C    0.000000  -0.000000   0.000000   0.000000  -0.000000   0.000000
     8  C    0.000000   0.000000   0.000000   0.000000   0.000000   0.000000
     9  N   -0.000000  -0.000001  -0.000000   0.000000  -0.000000   0.000000
    10  B    0.000050   0.000195  -0.000002   0.000006  -0.000000   0.000000
    11  F   -0.000002   0.000006  -0.000000   0.000001  -0.000000   0.000000
    12  F   -0.000008  -0.000055  -0.000000  -0.000000   0.000000  -0.000000
    13  N    0.000460   0.000003  -0.000000  -0.000006   0.000000   0.000000
    14  C    0.004694   0.004519   0.000073  -0.000052  -0.000000  -0.000000
    15  C   -0.019455  -0.000060  -0.000137   0.002027   0.000003   0.000000
    16  C    0.395308  -0.038675   0.005753   0.000545   0.000120  -0.000000
    17  C   -0.014566   0.424247  -0.020481  -0.005340  -0.000007   0.000016
    18  C   -0.006648  -0.028753   0.415782   0.004231  -0.000104   0.000058
    19  C    0.008649   0.006595  -0.040526  -0.026683  -0.000088   0.001588
    20  C   -0.012771  -0.000382   0.009812   0.403494   0.001004  -0.000693
    21  C    0.000696   0.000036  -0.000783  -0.007219   0.382720   0.002322
    22  C    0.000065  -0.000001   0.000233   0.002755  -0.012712  -0.015260
    23  N    0.000002   0.000000   0.000001  -0.000116  -0.003946  -0.004017
    24  O    0.000001   0.000000  -0.000000  -0.000141   0.016601   0.000730
    25  O   -0.000000   0.000000   0.000000   0.000001   0.000753   0.016218
    26  C    0.000007   0.000036  -0.000405   0.000200   0.000583   0.387214
    27  C    0.000240  -0.000365  -0.005034   0.000936   0.000641  -0.003738
    28  C   -0.002707   0.000028   0.000002   0.000221   0.000001   0.000000
    29  H    0.000002  -0.000000   0.000000   0.000000   0.000000  -0.000000
    30  H   -0.000000  -0.000000   0.000000   0.000000  -0.000000  -0.000000
    31  H    0.000000   0.000000  -0.000000  -0.000000   0.000000   0.000000
    32  H   -0.000000  -0.000000   0.000000  -0.000000  -0.000000   0.000000
    33  H   -0.000000   0.000000   0.000000  -0.000000   0.000000  -0.000000
    34  H    0.000000  -0.000000   0.000000  -0.000000  -0.000000  -0.000000
    35  H    0.000000   0.000000  -0.000000   0.000000   0.000000   0.000000
    36  H    0.002087   0.001464  -0.000035  -0.000033  -0.000000  -0.000000
    37  H    0.504547   0.002838  -0.000305  -0.012187  -0.000058   0.000000
    38  H    0.002838   0.502359  -0.006197  -0.000262  -0.000000  -0.000000
    39  H   -0.000305  -0.006197   0.497834   0.000282   0.000004  -0.000014
    40  H   -0.012187  -0.000262   0.000282   0.449123  -0.001273   0.000039
    41  H   -0.000058  -0.000000   0.000004  -0.001273   0.424692  -0.000240
    42  H    0.000000  -0.000000  -0.000014   0.000039  -0.000240   0.425398
    43  H    0.000010  -0.000017   0.002604  -0.000169   0.000037  -0.002228
    44  H   -0.000565   0.000014   0.000001  -0.000012   0.000007   0.000000
              43         44
     1  C    0.000000  -0.000869
     2  C    0.000000   0.009065
     3  C    0.000000   0.004287
     4  C   -0.000000  -0.000542
     5  C    0.000000   0.000088
     6  C    0.000000   0.000001
     7  C   -0.000000   0.000000
     8  C   -0.000000   0.000000
     9  N   -0.000000   0.000002
    10  B   -0.000000   0.000048
    11  F   -0.000000   0.000004
    12  F   -0.000000   0.000003
    13  N   -0.000000   0.002798
    14  C    0.000001  -0.010916
    15  C    0.000000   0.000440
    16  C    0.000000  -0.000869
    17  C    0.001001   0.000456
    18  C   -0.004436  -0.000105
    19  C   -0.031402   0.000067
    20  C    0.008399   0.000871
    21  C   -0.002004   0.000112
    22  C    0.006336   0.000003
    23  N   -0.000112  -0.000000
    24  O    0.000002  -0.000000
    25  O   -0.000108   0.000000
    26  C   -0.019942  -0.000001
    27  C    0.414291  -0.000007
    28  C    0.000000   0.373433
    29  H   -0.000000   0.001544
    30  H   -0.000000  -0.000090
    31  H   -0.000000  -0.000062
    32  H   -0.000000  -0.000012
    33  H    0.000000  -0.000000
    34  H    0.000000  -0.000000
    35  H    0.000000   0.000000
    36  H    0.000000   0.000018
    37  H    0.000010  -0.000565
    38  H   -0.000017   0.000014
    39  H    0.002604   0.000001
    40  H   -0.000169  -0.000012
    41  H    0.000037   0.000007
    42  H   -0.002228   0.000000
    43  H    0.474968  -0.000000
    44  H   -0.000000   0.450012
 Mulliken charges:
               1
     1  C   -0.414739
     2  C   -0.064043
     3  C    0.072262
     4  C   -0.024452
     5  C   -0.007065
     6  C   -0.143595
     7  C   -0.240403
     8  C   -0.051427
     9  N   -0.096974
    10  B    0.377968
    11  F   -0.344264
    12  F   -0.360024
    13  N   -0.104047
    14  C    0.051712
    15  C   -0.135127
    16  C   -0.091784
    17  C   -0.099340
    18  C   -0.116339
    19  C    0.054021
    20  C   -0.202442
    21  C   -0.093339
    22  C   -0.018853
    23  N    0.486720
    24  O   -0.374438
    25  O   -0.374673
    26  C   -0.111390
    27  C   -0.130265
    28  C   -0.063079
    29  H    0.126975
    30  H    0.157548
    31  H    0.156199
    32  H    0.175936
    33  H    0.185305
    34  H    0.176501
    35  H    0.182048
    36  H    0.139475
    37  H    0.148421
    38  H    0.132411
    39  H    0.141540
    40  H    0.189645
    41  H    0.191262
    42  H    0.192606
    43  H    0.152769
    44  H    0.170779
 Sum of Mulliken charges =  -0.00000
 Mulliken charges with hydrogens summed into heavy atoms:
               1
     1  C    0.025984
     2  C   -0.064043
     3  C    0.072262
     4  C    0.151484
     5  C   -0.007065
     6  C    0.041710
     7  C   -0.063903
     8  C    0.130620
     9  N   -0.096974
    10  B    0.377968
    11  F   -0.344264
    12  F   -0.360024
    13  N   -0.104047
    14  C    0.051712
    15  C    0.004349
    16  C    0.056637
    17  C    0.033071
    18  C    0.025201
    19  C    0.054021
    20  C   -0.012797
    21  C    0.097923
    22  C   -0.018853
    23  N    0.486720
    24  O   -0.374438
    25  O   -0.374673
    26  C    0.081216
    27  C    0.022504
    28  C    0.107700
 Electronic spatial extent (au):  <R**2>=          18375.9935
 Charge=             -0.0000 electrons
 Dipole moment (field-independent basis, Debye):
    X=             -4.5219    Y=              1.9392    Z=             -2.3282  Tot=              5.4432
 Quadrupole moment (field-independent basis, Debye-Ang):
   XX=           -194.2052   YY=           -143.7988   ZZ=           -169.5131
   XY=            -48.8449   XZ=             -1.8104   YZ=              0.5182
 Traceless Quadrupole moment (field-independent basis, Debye-Ang):
   XX=            -25.0328   YY=             25.3736   ZZ=             -0.3407
   XY=            -48.8449   XZ=             -1.8104   YZ=              0.5182
 Octapole moment (field-independent basis, Debye-Ang**2):
  XXX=           -768.0047  YYY=              6.1305  ZZZ=              4.1529  XYY=            -57.4534
  XXY=           -149.6331  XXZ=            -51.0434  XZZ=             38.4388  YZZ=              6.9121
  YYZ=            -19.2141  XYZ=             10.9063
 Hexadecapole moment (field-independent basis, Debye-Ang**3):
 XXXX=         -24531.7470 YYYY=          -2458.0009 ZZZZ=           -441.7525 XXXY=          -1658.4654
 XXXZ=           -274.8495 YYYX=           -211.1155 YYYZ=            -12.8043 ZZZX=             22.1471
 ZZZY=              9.6887 XXYY=          -3932.3517 XXZZ=          -3818.2989 YYZZ=           -541.3697
 XXYZ=            -36.8065 YYXZ=            -79.4484 ZZXY=             20.8480
 N-N= 2.309204190903D+03 E-N=-7.679839361417D+03  KE= 1.304281852455D+03
 No NMR shielding tensors so no spin-rotation constants.
 Leave Link  601 at Fri Nov  7 10:55:16 2025, MaxMem= 30870077440 cpu:              75.2 elap:               1.4
 (Enter /public/software/gauss/g16/l9999.exe)
 1\1\GINC-CU015\SP\RM062X\def2TZVPP\C20H16B1F2N3O2\BAIDING\07-Nov-2025\
 0\\#p M062X/DEF2TZVPP scrf=(solvent=water) em=GD3\\Energy calculation 
 for M100035759\\0,1\C,0,-2.080103,3.824257,-0.555579\C,0,-2.033265,2.3
 38471,-0.39637\C,0,-3.163225,1.478447,-0.19995\C,0,-4.512943,1.784635,
 -0.132034\C,0,-5.480604,0.78652,0.016462\C,0,-6.893013,0.843768,0.0282
 18\C,0,-7.35373,-0.466888,0.151575\C,0,-6.219442,-1.293954,0.216479\N,
 0,-5.096789,-0.548698,0.135425\B,0,-3.631551,-1.046493,0.273229\F,0,-3
 .374806,-1.434362,1.592685\F,0,-3.41582,-2.130816,-0.581629\N,0,-2.714
 371,0.159607,-0.114639\C,0,-1.359193,0.170565,-0.246909\C,0,-0.573918,
 -1.032994,-0.225497\C,0,0.786696,-1.056297,-0.258204\C,0,1.522443,-2.2
 92617,-0.277946\C,0,2.870709,-2.478289,-0.25888\C,0,3.948354,-1.504459
 ,-0.098921\C,0,3.819531,-0.295701,0.621898\C,0,4.885401,0.58372,0.7403
 82\C,0,6.104193,0.255255,0.141298\N,0,7.220899,1.174423,0.261023\O,0,7
 .052774,2.235951,0.876206\O,0,8.301849,0.865147,-0.257808\C,0,6.281376
 ,-0.944227,-0.554206\C,0,5.208963,-1.81541,-0.658116\C,0,-0.923356,1.5
 17626,-0.423108\H,0,-1.072992,4.231535,-0.669736\H,0,-2.666269,4.11138
 5,-1.435624\H,0,-2.547048,4.302896,0.312101\H,0,-4.827958,2.819057,-0.
 217519\H,0,-7.479352,1.748591,-0.057275\H,0,-8.38023,-0.803704,0.1867\
 H,0,-6.167786,-2.369524,0.319103\H,0,-1.116289,-1.972686,-0.190494\H,0
 ,1.333746,-0.120147,-0.301767\H,0,0.914535,-3.191262,-0.36916\H,0,3.21
 593,-3.4985,-0.412025\H,0,2.892139,-0.059031,1.128029\H,0,4.785038,1.5
 05046,1.299574\H,0,7.239999,-1.181146,-0.997579\H,0,5.333826,-2.751984
 ,-1.192029\H,0,0.101692,1.827851,-0.571333\\Version=ES64L-G16RevA.03\S
 tate=1-A\HF=-1311.0837592\RMSD=6.748e-09\Dipole=-1.7790434,0.7629461,-
 0.9159984\Quadrupole=-18.6112848,18.8646112,-0.2533265,-36.314982,-1.3
 459986,0.3852727\PG=C01 [X(C20H16B1F2N3O2)]\\@


 ... SUBJECTS WHICH DISCLOSE THEIR FULL POWER, MEANING AND BEAUTY AS SOON
 AS THEY ARE PRESENTED TO THE MIND HAVE VERY LITTLE OF THOSE QUALITIES
 TO DISCLOSE.
                           -- CHARLES DUTTON (1882)
 Job cpu time:       0 days  6 hours 27 minutes 32.5 seconds.
 Elapsed time:       0 days  0 hours  6 minutes  9.8 seconds.
 File lengths (MBytes):  RWF=    823 Int=      0 D2E=      0 Chk=     71 Scr=      1
 Normal termination of Gaussian 16 at Fri Nov  7 10:55:16 2025.
