 Entering Gaussian System, Link 0=g16
 Input=M100032886_reduced_sp.gjf
 Output=M100032886_reduced_sp.log
 Initial command:
 /public/software/gauss/g16/l1.exe "/public/home/baiding/1101_v2_sp/tmp_M100032886_reduced_sp_1568608/Gau-4127434.inp" -scrdir="/public/home/baiding/1101_v2_sp/tmp_M100032886_reduced_sp_1568608/"
 Entering Link 1 = /public/software/gauss/g16/l1.exe PID=   4127435.
  
 Copyright (c) 1988,1990,1992,1993,1995,1998,2003,2009,2016,
            Gaussian, Inc.  All Rights Reserved.
  
 This is part of the Gaussian(R) 16 program.  It is based on
 the Gaussian(R) 09 system (copyright 2009, Gaussian, Inc.),
 the Gaussian(R) 03 system (copyright 2003, Gaussian, Inc.),
 the Gaussian(R) 98 system (copyright 1998, Gaussian, Inc.),
 the Gaussian(R) 94 system (copyright 1995, Gaussian, Inc.),
 the Gaussian 92(TM) system (copyright 1992, Gaussian, Inc.),
 the Gaussian 90(TM) system (copyright 1990, Gaussian, Inc.),
 the Gaussian 88(TM) system (copyright 1988, Gaussian, Inc.),
 the Gaussian 86(TM) system (copyright 1986, Carnegie Mellon
 University), and the Gaussian 82(TM) system (copyright 1983,
 Carnegie Mellon University). Gaussian is a federally registered
 trademark of Gaussian, Inc.
  
 This software contains proprietary and confidential information,
 including trade secrets, belonging to Gaussian, Inc.
  
 This software is provided under written license and may be
 used, copied, transmitted, or stored only in accord with that
 written license.
  
 The following legend is applicable only to US Government
 contracts under FAR:
  
                    RESTRICTED RIGHTS LEGEND
  
 Use, reproduction and disclosure by the US Government is
 subject to restrictions as set forth in subparagraphs (a)
 and (c) of the Commercial Computer Software - Restricted
 Rights clause in FAR 52.227-19.
  
 Gaussian, Inc.
 340 Quinnipiac St., Bldg. 40, Wallingford CT 06492
  
  
 ---------------------------------------------------------------
 Warning -- This program may not be used in any manner that
 competes with the business of Gaussian, Inc. or will provide
 assistance to any competitor of Gaussian, Inc.  The licensee
 of this program is prohibited from giving any competitor of
 Gaussian, Inc. access to this program.  By using this program,
 the user acknowledges that Gaussian, Inc. is engaged in the
 business of creating and licensing software in the field of
 computational chemistry and represents and warrants to the
 licensee that it is not a competitor of Gaussian, Inc. and that
 it will not use this program in any manner prohibited above.
 ---------------------------------------------------------------
  

 Cite this work as:
 Gaussian 16, Revision A.03,
 M. J. Frisch, G. W. Trucks, H. B. Schlegel, G. E. Scuseria, 
 M. A. Robb, J. R. Cheeseman, G. Scalmani, V. Barone, 
 G. A. Petersson, H. Nakatsuji, X. Li, M. Caricato, A. V. Marenich, 
 J. Bloino, B. G. Janesko, R. Gomperts, B. Mennucci, H. P. Hratchian, 
 J. V. Ortiz, A. F. Izmaylov, J. L. Sonnenberg, D. Williams-Young, 
 F. Ding, F. Lipparini, F. Egidi, J. Goings, B. Peng, A. Petrone, 
 T. Henderson, D. Ranasinghe, V. G. Zakrzewski, J. Gao, N. Rega, 
 G. Zheng, W. Liang, M. Hada, M. Ehara, K. Toyota, R. Fukuda, 
 J. Hasegawa, M. Ishida, T. Nakajima, Y. Honda, O. Kitao, H. Nakai, 
 T. Vreven, K. Throssell, J. A. Montgomery, Jr., J. E. Peralta, 
 F. Ogliaro, M. J. Bearpark, J. J. Heyd, E. N. Brothers, K. N. Kudin, 
 V. N. Staroverov, T. A. Keith, R. Kobayashi, J. Normand, 
 K. Raghavachari, A. P. Rendell, J. C. Burant, S. S. Iyengar, 
 J. Tomasi, M. Cossi, J. M. Millam, M. Klene, C. Adamo, R. Cammi, 
 J. W. Ochterski, R. L. Martin, K. Morokuma, O. Farkas, 
 J. B. Foresman, and D. J. Fox, Gaussian, Inc., Wallingford CT, 2016.
 
 ******************************************
 Gaussian 16:  ES64L-G16RevA.03 25-Dec-2016
                 6-Nov-2025 
 ******************************************
 %nprocshared=64
 Will use up to   64 processors via shared memory.
 %mem=230GB
 %chk=M100032886_reduced_sp.chk
 ----------------------------------------------
 #p M062X/DEF2TZVPP scrf=(solvent=water) em=GD3
 ----------------------------------------------
 1/38=1,172=1/1;
 2/12=2,17=6,18=5,40=1/2;
 3/5=44,7=202,11=2,25=1,30=1,70=2201,72=1,74=-55,124=31/1,2,3;
 4//1;
 5/5=2,38=5,53=1/2;
 6/7=2,8=2,9=2,10=2,28=1/1;
 99/5=1,9=1/99;
 Leave Link    1 at Thu Nov  6 06:00:45 2025, MaxMem= 30870077440 cpu:              10.7 elap:               0.2
 (Enter /public/software/gauss/g16/l101.exe)
 -----------------------------------------
 Energy calculation for M100032886_reduced
 -----------------------------------------
 Symbolic Z-matrix:
 Charge = -1 Multiplicity = 2
 C                     0.37454   5.67447  -2.1288 
 C                     0.43805   4.16336  -2.29735 
 O                     1.73867   3.59457  -2.04925 
 C                     2.11047   3.48245  -0.68791 
 O                     2.81762   4.66328  -0.31104 
 C                     2.48449   5.18174   0.98826 
 C                     2.9495    4.30736   2.1458 
 C                     2.99946   2.27706  -0.55545 
 C                     4.3629    2.17628  -0.83291 
 C                     4.72927   0.83463  -0.64535 
 C                     3.57153   0.13648  -0.23739 
 N                     2.51783   1.04099  -0.19891 
 B                     1.06007   0.72246   0.20654 
 F                     0.19223   1.11884  -0.82663 
 F                     0.74332   1.44481   1.37895 
 N                     0.96793  -0.80256   0.45977 
 C                    -0.14616  -1.53905   0.85601 
 C                    -1.49041  -1.12987   1.06002 
 N                    -1.96315   0.08889   0.97136 
 N                    -3.33461   0.19348   1.19033 
 C                    -4.32961  -0.39438   0.50667 
 C                    -5.72226  -0.15139   0.81488 
 C                    -6.74065  -0.7837    0.10235 
 C                    -6.42652  -1.64111  -0.93408 
 C                    -5.07753  -1.87691  -1.29437 
 C                    -4.07005  -1.27798  -0.59216 
 N                    -7.48393  -2.28197  -1.65969 
 O                    -7.18142  -3.05378  -2.58587 
 O                    -8.66317  -2.04928  -1.34331 
 N                    -6.13622   0.73368   1.85899 
 O                    -7.34257   0.83197   2.13674 
 O                    -5.27177   1.39684   2.47715 
 C                     0.25734  -2.88025   1.05733 
 C                     1.61143  -2.96699   0.7961 
 C                     2.0535   -1.66991   0.41366 
 C                     3.35966  -1.23677   0.07016 
 C                     4.48932  -2.19373   0.02916 
 C                     5.69119  -1.92861   0.7151 
 C                     6.75672  -2.82438   0.67448 
 C                     6.6751   -4.02213  -0.05192 
 C                     7.84249  -4.9755   -0.11077 
 C                     5.48047  -4.28877  -0.7339 
 C                     4.40987  -3.39573  -0.6979 
 H                     0.50427   5.97683  -1.08608 
 H                     1.14548   6.16443  -2.732 
 H                    -0.60352   6.03576  -2.46542 
 H                    -0.29729   3.66254  -1.65532 
 H                     0.21399   3.8928   -3.33375 
 H                     1.21532   3.38193  -0.06384 
 H                     2.97264   6.15984   1.03072 
 H                     1.39924   5.34629   1.04748 
 H                     2.75366   4.82452   3.0916 
 H                     2.41712   3.3519    2.16864 
 H                     4.02396   4.10918   2.07939 
 H                     5.00256   2.99274  -1.13848 
 H                     5.70868   0.40129  -0.78595 
 H                    -2.1523   -1.95178   1.3418 
 H                    -3.61113   0.95121   1.80936 
 H                    -7.77031  -0.59052   0.36683 
 H                    -4.85099  -2.52334  -2.13244 
 H                    -3.04494  -1.45495  -0.88617 
 H                    -0.40552  -3.67732   1.36819 
 H                     2.23656  -3.84398   0.86881 
 H                     5.7793   -1.02004   1.30217 
 H                     7.66592  -2.59461   1.22482 
 H                     8.3176   -5.086     0.86946 
 H                     7.53168  -5.96576  -0.45519 
 H                     8.61455  -4.61348  -0.80133 
 H                     5.38822  -5.20657  -1.30914 
 H                     3.50649  -3.62442  -1.25446 
 
 ITRead=  0  0  0  0  0  0  0  0  0  0  0  0  0  0  0  0  0  0  0  0
 ITRead=  0  0  0  0  0  0  0  0  0  0  0  0  0  0  0  0  0  0  0  0
 ITRead=  0  0  0  0  0  0  0  0  0  0  0  0  0  0  0  0  0  0  0  0
 ITRead=  0  0  0  0  0  0  0  0  0  0
 MicOpt= -1 -1 -1 -1 -1 -1 -1 -1 -1 -1 -1 -1 -1 -1 -1 -1 -1 -1 -1 -1
 MicOpt= -1 -1 -1 -1 -1 -1 -1 -1 -1 -1 -1 -1 -1 -1 -1 -1 -1 -1 -1 -1
 MicOpt= -1 -1 -1 -1 -1 -1 -1 -1 -1 -1 -1 -1 -1 -1 -1 -1 -1 -1 -1 -1
 MicOpt= -1 -1 -1 -1 -1 -1 -1 -1 -1 -1
 NAtoms=     70 NQM=       70 NQMF=       0 NMMI=      0 NMMIF=      0
                NMic=       0 NMicF=      0.
                    Isotopes and Nuclear Properties:
 (Nuclear quadrupole moments (NQMom) in fm**2, nuclear magnetic moments (NMagM)
  in nuclear magnetons)

  Atom         1           2           3           4           5           6           7           8           9          10
 IAtWgt=          12          12          16          12          16          12          12          12          12          12
 AtmWgt=  12.0000000  12.0000000  15.9949146  12.0000000  15.9949146  12.0000000  12.0000000  12.0000000  12.0000000  12.0000000
 NucSpn=           0           0           0           0           0           0           0           0           0           0
 AtZEff=  -0.0000000  -0.0000000  -0.0000000  -0.0000000  -0.0000000  -0.0000000  -0.0000000  -0.0000000  -0.0000000  -0.0000000
 NQMom=    0.0000000   0.0000000   0.0000000   0.0000000   0.0000000   0.0000000   0.0000000   0.0000000   0.0000000   0.0000000
 NMagM=    0.0000000   0.0000000   0.0000000   0.0000000   0.0000000   0.0000000   0.0000000   0.0000000   0.0000000   0.0000000
 AtZNuc=   6.0000000   6.0000000   8.0000000   6.0000000   8.0000000   6.0000000   6.0000000   6.0000000   6.0000000   6.0000000

  Atom        11          12          13          14          15          16          17          18          19          20
 IAtWgt=          12          14          11          19          19          14          12          12          14          14
 AtmWgt=  12.0000000  14.0030740  11.0093053  18.9984033  18.9984033  14.0030740  12.0000000  12.0000000  14.0030740  14.0030740
 NucSpn=           0           2           3           1           1           2           0           0           2           2
 AtZEff=  -0.0000000  -0.0000000  -0.0000000  -0.0000000  -0.0000000  -0.0000000  -0.0000000  -0.0000000  -0.0000000  -0.0000000
 NQMom=    0.0000000   2.0440000   4.0590000   0.0000000   0.0000000   2.0440000   0.0000000   0.0000000   2.0440000   2.0440000
 NMagM=    0.0000000   0.4037610   2.6886370   2.6288670   2.6288670   0.4037610   0.0000000   0.0000000   0.4037610   0.4037610
 AtZNuc=   6.0000000   7.0000000   5.0000000   9.0000000   9.0000000   7.0000000   6.0000000   6.0000000   7.0000000   7.0000000

  Atom        21          22          23          24          25          26          27          28          29          30
 IAtWgt=          12          12          12          12          12          12          14          16          16          14
 AtmWgt=  12.0000000  12.0000000  12.0000000  12.0000000  12.0000000  12.0000000  14.0030740  15.9949146  15.9949146  14.0030740
 NucSpn=           0           0           0           0           0           0           2           0           0           2
 AtZEff=  -0.0000000  -0.0000000  -0.0000000  -0.0000000  -0.0000000  -0.0000000  -0.0000000  -0.0000000  -0.0000000  -0.0000000
 NQMom=    0.0000000   0.0000000   0.0000000   0.0000000   0.0000000   0.0000000   2.0440000   0.0000000   0.0000000   2.0440000
 NMagM=    0.0000000   0.0000000   0.0000000   0.0000000   0.0000000   0.0000000   0.4037610   0.0000000   0.0000000   0.4037610
 AtZNuc=   6.0000000   6.0000000   6.0000000   6.0000000   6.0000000   6.0000000   7.0000000   8.0000000   8.0000000   7.0000000

  Atom        31          32          33          34          35          36          37          38          39          40
 IAtWgt=          16          16          12          12          12          12          12          12          12          12
 AtmWgt=  15.9949146  15.9949146  12.0000000  12.0000000  12.0000000  12.0000000  12.0000000  12.0000000  12.0000000  12.0000000
 NucSpn=           0           0           0           0           0           0           0           0           0           0
 AtZEff=  -0.0000000  -0.0000000  -0.0000000  -0.0000000  -0.0000000  -0.0000000  -0.0000000  -0.0000000  -0.0000000  -0.0000000
 NQMom=    0.0000000   0.0000000   0.0000000   0.0000000   0.0000000   0.0000000   0.0000000   0.0000000   0.0000000   0.0000000
 NMagM=    0.0000000   0.0000000   0.0000000   0.0000000   0.0000000   0.0000000   0.0000000   0.0000000   0.0000000   0.0000000
 AtZNuc=   8.0000000   8.0000000   6.0000000   6.0000000   6.0000000   6.0000000   6.0000000   6.0000000   6.0000000   6.0000000

  Atom        41          42          43          44          45          46          47          48          49          50
 IAtWgt=          12          12          12           1           1           1           1           1           1           1
 AtmWgt=  12.0000000  12.0000000  12.0000000   1.0078250   1.0078250   1.0078250   1.0078250   1.0078250   1.0078250   1.0078250
 NucSpn=           0           0           0           1           1           1           1           1           1           1
 AtZEff=  -0.0000000  -0.0000000  -0.0000000  -0.0000000  -0.0000000  -0.0000000  -0.0000000  -0.0000000  -0.0000000  -0.0000000
 NQMom=    0.0000000   0.0000000   0.0000000   0.0000000   0.0000000   0.0000000   0.0000000   0.0000000   0.0000000   0.0000000
 NMagM=    0.0000000   0.0000000   0.0000000   2.7928460   2.7928460   2.7928460   2.7928460   2.7928460   2.7928460   2.7928460
 AtZNuc=   6.0000000   6.0000000   6.0000000   1.0000000   1.0000000   1.0000000   1.0000000   1.0000000   1.0000000   1.0000000

  Atom        51          52          53          54          55          56          57          58          59          60
 IAtWgt=           1           1           1           1           1           1           1           1           1           1
 AtmWgt=   1.0078250   1.0078250   1.0078250   1.0078250   1.0078250   1.0078250   1.0078250   1.0078250   1.0078250   1.0078250
 NucSpn=           1           1           1           1           1           1           1           1           1           1
 AtZEff=  -0.0000000  -0.0000000  -0.0000000  -0.0000000  -0.0000000  -0.0000000  -0.0000000  -0.0000000  -0.0000000  -0.0000000
 NQMom=    0.0000000   0.0000000   0.0000000   0.0000000   0.0000000   0.0000000   0.0000000   0.0000000   0.0000000   0.0000000
 NMagM=    2.7928460   2.7928460   2.7928460   2.7928460   2.7928460   2.7928460   2.7928460   2.7928460   2.7928460   2.7928460
 AtZNuc=   1.0000000   1.0000000   1.0000000   1.0000000   1.0000000   1.0000000   1.0000000   1.0000000   1.0000000   1.0000000

  Atom        61          62          63          64          65          66          67          68          69          70
 IAtWgt=           1           1           1           1           1           1           1           1           1           1
 AtmWgt=   1.0078250   1.0078250   1.0078250   1.0078250   1.0078250   1.0078250   1.0078250   1.0078250   1.0078250   1.0078250
 NucSpn=           1           1           1           1           1           1           1           1           1           1
 AtZEff=  -0.0000000  -0.0000000  -0.0000000  -0.0000000  -0.0000000  -0.0000000  -0.0000000  -0.0000000  -0.0000000  -0.0000000
 NQMom=    0.0000000   0.0000000   0.0000000   0.0000000   0.0000000   0.0000000   0.0000000   0.0000000   0.0000000   0.0000000
 NMagM=    2.7928460   2.7928460   2.7928460   2.7928460   2.7928460   2.7928460   2.7928460   2.7928460   2.7928460   2.7928460
 AtZNuc=   1.0000000   1.0000000   1.0000000   1.0000000   1.0000000   1.0000000   1.0000000   1.0000000   1.0000000   1.0000000
 Leave Link  101 at Thu Nov  6 06:00:45 2025, MaxMem= 30870077440 cpu:               3.9 elap:               0.1
 (Enter /public/software/gauss/g16/l202.exe)
 Stoichiometry    C28H27BF2N6O6(1-,2)
 Framework group  C1[X(C28H27BF2N6O6)]
 Deg. of freedom   204
 Full point group                 C1      NOp   1
 Largest Abelian subgroup         C1      NOp   1
 Largest concise Abelian subgroup C1      NOp   1
                         Standard orientation:                         
 ---------------------------------------------------------------------
 Center     Atomic      Atomic             Coordinates (Angstroms)
 Number     Number       Type             X           Y           Z
 ---------------------------------------------------------------------
      1          6           0       -0.374538    5.674469    2.128803
      2          6           0       -0.438048    4.163359    2.297352
      3          8           0       -1.738669    3.594572    2.049248
      4          6           0       -2.110473    3.482447    0.687909
      5          8           0       -2.817619    4.663275    0.311040
      6          6           0       -2.484492    5.181742   -0.988255
      7          6           0       -2.949503    4.307358   -2.145801
      8          6           0       -2.999457    2.277061    0.555448
      9          6           0       -4.362900    2.176276    0.832906
     10          6           0       -4.729273    0.834630    0.645351
     11          6           0       -3.571534    0.136482    0.237393
     12          7           0       -2.517834    1.040990    0.198911
     13          5           0       -1.060067    0.722462   -0.206540
     14          9           0       -0.192228    1.118843    0.826630
     15          9           0       -0.743316    1.444807   -1.378954
     16          7           0       -0.967927   -0.802561   -0.459772
     17          6           0        0.146163   -1.539050   -0.856010
     18          6           0        1.490408   -1.129868   -1.060023
     19          7           0        1.963146    0.088891   -0.971361
     20          7           0        3.334612    0.193476   -1.190329
     21          6           0        4.329610   -0.394380   -0.506665
     22          6           0        5.722264   -0.151385   -0.814879
     23          6           0        6.740648   -0.783699   -0.102348
     24          6           0        6.426524   -1.641108    0.934080
     25          6           0        5.077527   -1.876913    1.294366
     26          6           0        4.070052   -1.277981    0.592155
     27          7           0        7.483928   -2.281969    1.659689
     28          8           0        7.181417   -3.053780    2.585872
     29          8           0        8.663165   -2.049282    1.343306
     30          7           0        6.136222    0.733681   -1.858989
     31          8           0        7.342566    0.831967   -2.136744
     32          8           0        5.271774    1.396838   -2.477153
     33          6           0       -0.257337   -2.880251   -1.057326
     34          6           0       -1.611434   -2.966990   -0.796096
     35          6           0       -2.053497   -1.669910   -0.413663
     36          6           0       -3.359659   -1.236767   -0.070157
     37          6           0       -4.489317   -2.193726   -0.029164
     38          6           0       -5.691190   -1.928613   -0.715098
     39          6           0       -6.756721   -2.824376   -0.674477
     40          6           0       -6.675103   -4.022130    0.051920
     41          6           0       -7.842491   -4.975502    0.110769
     42          6           0       -5.480469   -4.288767    0.733900
     43          6           0       -4.409866   -3.395732    0.697904
     44          1           0       -0.504272    5.976829    1.086079
     45          1           0       -1.145478    6.164428    2.732004
     46          1           0        0.603522    6.035764    2.465416
     47          1           0        0.297294    3.662544    1.655321
     48          1           0       -0.213990    3.892799    3.333750
     49          1           0       -1.215320    3.381925    0.063839
     50          1           0       -2.972641    6.159836   -1.030720
     51          1           0       -1.399241    5.346292   -1.047483
     52          1           0       -2.753660    4.824519   -3.091602
     53          1           0       -2.417115    3.351897   -2.168644
     54          1           0       -4.023961    4.109175   -2.079392
     55          1           0       -5.002563    2.992743    1.138477
     56          1           0       -5.708676    0.401288    0.785950
     57          1           0        2.152303   -1.951777   -1.341802
     58          1           0        3.611131    0.951212   -1.809355
     59          1           0        7.770313   -0.590517   -0.366833
     60          1           0        4.850985   -2.523336    2.132443
     61          1           0        3.044938   -1.454950    0.886170
     62          1           0        0.405517   -3.677317   -1.368193
     63          1           0       -2.236558   -3.843977   -0.868806
     64          1           0       -5.779297   -1.020036   -1.302171
     65          1           0       -7.665923   -2.594606   -1.224822
     66          1           0       -8.317597   -5.086004   -0.869457
     67          1           0       -7.531681   -5.965757    0.455185
     68          1           0       -8.614552   -4.613479    0.801327
     69          1           0       -5.388219   -5.206567    1.309137
     70          1           0       -3.506487   -3.624420    1.254464
 ---------------------------------------------------------------------
 Rotational constants (GHZ):           0.0962565           0.0385725           0.0307002
 Leave Link  202 at Thu Nov  6 06:00:45 2025, MaxMem= 30870077440 cpu:               0.2 elap:               0.0
 (Enter /public/software/gauss/g16/l301.exe)
 Standard basis: def2TZVPP (5D, 7F)
 Ernie: Thresh=  0.10000D-02 Tol=  0.10000D-05 Strict=F.
 There are  1953 symmetry adapted cartesian basis functions of A   symmetry.
 There are  1711 symmetry adapted basis functions of A   symmetry.
  1711 basis functions,  2652 primitive gaussians,  1953 cartesian basis functions
   155 alpha electrons      154 beta electrons
       nuclear repulsion energy      4949.3018274376 Hartrees.
 IExCor= 4336 DFT=T Ex+Corr=M062X ExCW=0 ScaHFX=  0.540000
 ScaDFX=  1.000000  1.000000  1.000000  1.000000 ScalE2=  1.000000  1.000000
 IRadAn=      5 IRanWt=     -1 IRanGd=            0 ICorTp=0 IEmpDi=131
 NAtoms=   70 NActive=   70 NUniq=   70 SFac= 1.00D+00 NAtFMM=   60 NAOKFM=T Big=T
 Integral buffers will be    131072 words long.
 Raffenetti 2 integral format.
 Two-electron integral symmetry is turned on.
 R6Disp:  Grimme-D3 Dispersion energy=       -0.0059726225 Hartrees.
 Nuclear repulsion after empirical dispersion term =     4949.2958548152 Hartrees.
 ------------------------------------------------------------------------------
 Polarizable Continuum Model (PCM)
 =================================
 Model                : PCM.
 Atomic radii         : UFF (Universal Force Field).
 Polarization charges : Total charges.
 Charge compensation  : None.
 Solution method      : On-the-fly selection.
 Cavity type          : Scaled VdW (van der Waals Surface) (Alpha=1.100).
 Cavity algorithm     : GePol (No added spheres)
                        Default sphere list used, NSphG=   70.
                        Lebedev-Laikov grids with approx.  5.0 points / Ang**2.
                        Smoothing algorithm: York/Karplus (Gamma=1.0000).
                        Polarization charges: spherical gaussians, with
                                              point-specific exponents (IZeta= 3).
                        Self-potential: point-specific (ISelfS= 7).
                        Self-field    : sphere-specific E.n sum rule (ISelfD= 2).
 Solvent              : Water, Eps=  78.355300 Eps(inf)=   1.777849
 ------------------------------------------------------------------------------
 GePol: Number of generator spheres                  =      70
 GePol: Total number of spheres                      =      70
 GePol: Number of exposed spheres                    =      70 (100.00%)
 GePol: Number of points                             =    5075
 GePol: Average weight of points                     =       0.13
 GePol: Minimum weight of points                     =   0.22D-10
 GePol: Maximum weight of points                     =    0.20577
 GePol: Number of points with low weight             =     351
 GePol: Fraction of low-weight points (<1% of avg)   =       6.92%
 GePol: Cavity surface area                          =    651.096 Ang**2
 GePol: Cavity volume                                =    749.824 Ang**3
 Leave Link  301 at Thu Nov  6 06:00:45 2025, MaxMem= 30870077440 cpu:               3.4 elap:               0.1
 (Enter /public/software/gauss/g16/l302.exe)
 NPDir=0 NMtPBC=     1 NCelOv=     1 NCel=       1 NClECP=     1 NCelD=      1
         NCelK=      1 NCelE2=     1 NClLst=     1 CellRange=     0.0.
 One-electron integrals computed using PRISM.
 One-electron integral symmetry used in STVInt
   1 Symmetry operations used in ECPInt.
 ECPInt:  NShTT=  201930 NPrTT=  580453 LenC2=  131080 LenP2D=  253212.
 LDataN:  DoStor=T MaxTD1= 6 Len=  172
 NBasis=  1711 RedAO= T EigKep=  6.47D-06  NBF=  1711
 NBsUse=  1711 1.00D-06 EigRej= -1.00D+00 NBFU=  1711
 Precomputing XC quadrature grid using
 IXCGrd= 4 IRadAn=           5 IRanWt=          -1 IRanGd=           0 AccXCQ= 0.00D+00.
 Generated NRdTot=       0 NPtTot=           0 NUsed=           0 NTot=          32
 NSgBfM=  1773  1767  1767  1772  1773 MxSgAt=    70 MxSgA2=    70.
 Leave Link  302 at Thu Nov  6 06:00:52 2025, MaxMem= 30870077440 cpu:             486.7 elap:               7.6
 (Enter /public/software/gauss/g16/l303.exe)
 DipDrv:  MaxL=1.
 Leave Link  303 at Thu Nov  6 06:00:53 2025, MaxMem= 30870077440 cpu:              24.1 elap:               0.4
 (Enter /public/software/gauss/g16/l401.exe)
 ExpMin= 6.06D-02 ExpMax= 3.55D+04 ExpMxC= 1.21D+03 IAcc=3 IRadAn=         5 AccDes= 0.00D+00
 Harris functional with IExCor= 1009 and IRadAn=       5 diagonalized for initial guess.
 HarFok:  IExCor= 1009 AccDes= 0.00D+00 IRadAn=         5 IDoV= 1 UseB2=F ITyADJ=14
 ICtDFT=  3500011 ScaDFX=  1.000000  1.000000  1.000000  1.000000
 FoFCou: FMM=F IPFlag=           0 FMFlag=      100000 FMFlg1=        2001
         NFxFlg=           0 DoJE=T BraDBF=F KetDBF=T FulRan=T
         wScrn=  0.000000 ICntrl=       500 IOpCl=  0 I1Cent=   200000004 NGrid=           0
         NMat0=    1 NMatS0=      1 NMatT0=    0 NMatD0=    1 NMtDS0=    0 NMtDT0=    0
 Petite list used in FoFCou.
 Harris En= -2086.73883306575    
 JPrj=0 DoOrth=F DoCkMO=F.
 Initial guess <Sx>= 0.0000 <Sy>= 0.0000 <Sz>= 0.5000 <S**2>= 0.7500 S= 0.5000
 Leave Link  401 at Thu Nov  6 06:01:02 2025, MaxMem= 30870077440 cpu:             595.5 elap:               9.4
 (Enter /public/software/gauss/g16/l502.exe)
 Integral symmetry usage will be decided dynamically.
 UHF open shell SCF:
 Using DIIS extrapolation, IDIIS=  1040.
 NGot= 30870077440 LenX= 30862307624 LenY= 30858491462
 Requested convergence on RMS density matrix=1.00D-08 within 128 cycles.
 Requested convergence on MAX density matrix=1.00D-06.
 Requested convergence on             energy=1.00D-06.
 No special actions if energy rises.
 Fock matrices will be formed incrementally for  20 cycles.

 Cycle   1  Pass 1  IDiag  1:
 FoFJK:  IHMeth= 1 ICntrl=       0 DoSepK=F KAlg= 0 I1Cent=           0 FoldK=F
 IRaf= 620000000 NMat=       1 IRICut=       1 DoRegI=T DoRafI=F ISym2E= 0 IDoP0=0 IntGTp=1.
 FoFCou: FMM=T IPFlag=           0 FMFlag=      100000 FMFlg1=        2001
         NFxFlg=           0 DoJE=F BraDBF=F KetDBF=F FulRan=T
         wScrn=  0.000000 ICntrl=         0 IOpCl=  1 I1Cent=           0 NGrid=           0
         NMat0=    1 NMatS0=      1 NMatT0=    0 NMatD0=    1 NMtDS0=    0 NMtDT0=    0
 Symmetry not used in FoFCou.
 FMM levels:  10  Number of levels for PrismC:   9
 Inv3:  Mode=1 IEnd=    77266875.
 Iteration    1 A*A^-1 deviation from unit magnitude is 1.98D-14 for   5060.
 Iteration    1 A*A^-1 deviation from orthogonality  is 7.22D-15 for   5075   2916.
 Iteration    1 A^-1*A deviation from unit magnitude is 1.98D-14 for   5060.
 Iteration    1 A^-1*A deviation from orthogonality  is 6.10D-15 for   5064   3103.
 E= -2086.62659665311    
 DIIS: error= 2.55D-02 at cycle   1 NSaved=   1.
 NSaved= 1 IEnMin= 1 EnMin= -2086.62659665311     IErMin= 1 ErrMin= 2.55D-02
 ErrMax= 2.55D-02  0.00D+00 EMaxC= 1.00D-01 BMatC= 6.09D+00 BMatP= 6.09D+00
 IDIUse=3 WtCom= 7.45D-01 WtEn= 2.55D-01
 Coeff-Com:  0.100D+01
 Coeff-En:   0.100D+01
 Coeff:      0.100D+01
 Gap=     0.053 Goal=   None    Shift=    0.000
 Gap=     0.229 Goal=   None    Shift=    0.000
 GapD=    0.053 DampG=0.500 DampE=0.500 DampFc=0.2500 IDamp=-1.
 Damping current iteration by 2.50D-01
 RMSDP=1.78D-03 MaxDP=3.55D-01              OVMax= 6.63D-01

 Cycle   2  Pass 1  IDiag  1:
 RMSU=  4.45D-04    CP:  1.00D+00
 E= -2087.00937136247     Delta-E=       -0.382774709357 Rises=F Damp=T
 DIIS: error= 1.20D-02 at cycle   2 NSaved=   2.
 NSaved= 2 IEnMin= 2 EnMin= -2087.00937136247     IErMin= 2 ErrMin= 1.20D-02
 ErrMax= 1.20D-02  0.00D+00 EMaxC= 1.00D-01 BMatC= 2.01D+00 BMatP= 6.09D+00
 IDIUse=3 WtCom= 8.80D-01 WtEn= 1.20D-01
 Coeff-Com: -0.103D+01 0.203D+01
 Coeff-En:   0.000D+00 0.100D+01
 Coeff:     -0.902D+00 0.190D+01
 Gap=     0.032 Goal=   None    Shift=    0.000
 Gap=     0.208 Goal=   None    Shift=    0.000
 RMSDP=8.37D-04 MaxDP=2.29D-01 DE=-3.83D-01 OVMax= 5.93D-01

 Cycle   3  Pass 1  IDiag  1:
 RMSU=  6.56D-04    CP:  9.94D-01  2.17D+00
 E= -2087.69574912641     Delta-E=       -0.686377763939 Rises=F Damp=F
 DIIS: error= 7.57D-03 at cycle   3 NSaved=   3.
 NSaved= 3 IEnMin= 3 EnMin= -2087.69574912641     IErMin= 3 ErrMin= 7.57D-03
 ErrMax= 7.57D-03  0.00D+00 EMaxC= 1.00D-01 BMatC= 2.14D-01 BMatP= 2.01D+00
 IDIUse=3 WtCom= 9.24D-01 WtEn= 7.57D-02
 Coeff-Com: -0.432D+00 0.755D+00 0.676D+00
 Coeff-En:   0.000D+00 0.000D+00 0.100D+01
 Coeff:     -0.399D+00 0.698D+00 0.701D+00
 Gap=     0.079 Goal=   None    Shift=    0.000
 Gap=     0.163 Goal=   None    Shift=    0.000
 RMSDP=1.97D-04 MaxDP=2.24D-02 DE=-6.86D-01 OVMax= 6.35D-02

 Cycle   4  Pass 1  IDiag  1:
 RMSU=  1.87D-04    CP:  9.92D-01  2.06D+00  9.46D-01
 E= -2087.73190631691     Delta-E=       -0.036157190500 Rises=F Damp=F
 DIIS: error= 2.95D-03 at cycle   4 NSaved=   4.
 NSaved= 4 IEnMin= 4 EnMin= -2087.73190631691     IErMin= 4 ErrMin= 2.95D-03
 ErrMax= 2.95D-03  0.00D+00 EMaxC= 1.00D-01 BMatC= 3.90D-02 BMatP= 2.14D-01
 IDIUse=3 WtCom= 9.70D-01 WtEn= 2.95D-02
 Coeff-Com: -0.796D-01 0.125D+00 0.319D+00 0.636D+00
 Coeff-En:   0.000D+00 0.000D+00 0.749D-01 0.925D+00
 Coeff:     -0.772D-01 0.121D+00 0.311D+00 0.644D+00
 Gap=     0.099 Goal=   None    Shift=    0.000
 Gap=     0.163 Goal=   None    Shift=    0.000
 RMSDP=8.90D-05 MaxDP=1.62D-02 DE=-3.62D-02 OVMax= 4.36D-02

 Cycle   5  Pass 1  IDiag  1:
 RMSU=  8.78D-05    CP:  9.90D-01  2.07D+00  9.50D-01  9.34D-01
 E= -2087.73964964505     Delta-E=       -0.007743328140 Rises=F Damp=F
 DIIS: error= 5.80D-04 at cycle   5 NSaved=   5.
 NSaved= 5 IEnMin= 5 EnMin= -2087.73964964505     IErMin= 5 ErrMin= 5.80D-04
 ErrMax= 5.80D-04  0.00D+00 EMaxC= 1.00D-01 BMatC= 3.15D-03 BMatP= 3.90D-02
 IDIUse=3 WtCom= 9.94D-01 WtEn= 5.80D-03
 Coeff-Com: -0.184D-01 0.255D-01 0.112D+00 0.305D+00 0.575D+00
 Coeff-En:   0.000D+00 0.000D+00 0.000D+00 0.000D+00 0.100D+01
 Coeff:     -0.182D-01 0.254D-01 0.112D+00 0.303D+00 0.578D+00
 Gap=     0.104 Goal=   None    Shift=    0.000
 Gap=     0.165 Goal=   None    Shift=    0.000
 RMSDP=2.89D-05 MaxDP=5.34D-03 DE=-7.74D-03 OVMax= 1.55D-02

 Cycle   6  Pass 1  IDiag  1:
 RMSU=  2.85D-05    CP:  9.90D-01  2.08D+00  9.50D-01  9.46D-01  1.02D+00
 E= -2087.74039128039     Delta-E=       -0.000741635342 Rises=F Damp=F
 DIIS: error= 2.22D-04 at cycle   6 NSaved=   6.
 NSaved= 6 IEnMin= 6 EnMin= -2087.74039128039     IErMin= 6 ErrMin= 2.22D-04
 ErrMax= 2.22D-04  0.00D+00 EMaxC= 1.00D-01 BMatC= 4.12D-04 BMatP= 3.15D-03
 IDIUse=3 WtCom= 9.98D-01 WtEn= 2.22D-03
 Coeff-Com:  0.114D-02-0.291D-02 0.673D-02 0.451D-01 0.249D+00 0.701D+00
 Coeff-En:   0.000D+00 0.000D+00 0.000D+00 0.000D+00 0.000D+00 0.100D+01
 Coeff:      0.114D-02-0.291D-02 0.671D-02 0.450D-01 0.248D+00 0.702D+00
 Gap=     0.108 Goal=   None    Shift=    0.000
 Gap=     0.166 Goal=   None    Shift=    0.000
 RMSDP=1.80D-05 MaxDP=2.97D-03 DE=-7.42D-04 OVMax= 1.24D-02

 Cycle   7  Pass 1  IDiag  1:
 RMSU=  1.26D-05    CP:  9.90D-01  2.08D+00  9.52D-01  9.69D-01  1.15D+00
                    CP:  1.13D+00
 E= -2087.74059222762     Delta-E=       -0.000200947228 Rises=F Damp=F
 DIIS: error= 1.23D-04 at cycle   7 NSaved=   7.
 NSaved= 7 IEnMin= 7 EnMin= -2087.74059222762     IErMin= 7 ErrMin= 1.23D-04
 ErrMax= 1.23D-04  0.00D+00 EMaxC= 1.00D-01 BMatC= 1.28D-04 BMatP= 4.12D-04
 IDIUse=3 WtCom= 9.99D-01 WtEn= 1.23D-03
 Coeff-Com:  0.563D-02-0.842D-02-0.284D-01-0.657D-01-0.466D-01 0.347D+00
 Coeff-Com:  0.796D+00
 Coeff-En:   0.000D+00 0.000D+00 0.000D+00 0.000D+00 0.000D+00 0.000D+00
 Coeff-En:   0.100D+01
 Coeff:      0.562D-02-0.841D-02-0.284D-01-0.657D-01-0.465D-01 0.347D+00
 Coeff:      0.796D+00
 Gap=     0.110 Goal=   None    Shift=    0.000
 Gap=     0.167 Goal=   None    Shift=    0.000
 RMSDP=1.35D-05 MaxDP=1.96D-03 DE=-2.01D-04 OVMax= 9.32D-03

 Cycle   8  Pass 1  IDiag  1:
 RMSU=  6.59D-06    CP:  9.90D-01  2.08D+00  9.53D-01  9.85D-01  1.23D+00
                    CP:  1.40D+00  1.43D+00
 E= -2087.74068466265     Delta-E=       -0.000092435028 Rises=F Damp=F
 DIIS: error= 6.03D-05 at cycle   8 NSaved=   8.
 NSaved= 8 IEnMin= 8 EnMin= -2087.74068466265     IErMin= 8 ErrMin= 6.03D-05
 ErrMax= 6.03D-05  0.00D+00 EMaxC= 1.00D-01 BMatC= 3.21D-05 BMatP= 1.28D-04
 IDIUse=1 WtCom= 1.00D+00 WtEn= 0.00D+00
 Coeff-Com:  0.151D-02-0.191D-02-0.125D-01-0.385D-01-0.841D-01-0.395D-01
 Coeff-Com:  0.361D+00 0.814D+00
 Coeff:      0.151D-02-0.191D-02-0.125D-01-0.385D-01-0.841D-01-0.395D-01
 Coeff:      0.361D+00 0.814D+00
 Gap=     0.111 Goal=   None    Shift=    0.000
 Gap=     0.167 Goal=   None    Shift=    0.000
 RMSDP=7.15D-06 MaxDP=9.52D-04 DE=-9.24D-05 OVMax= 4.22D-03

 Cycle   9  Pass 1  IDiag  1:
 RMSU=  3.31D-06    CP:  9.90D-01  2.08D+00  9.54D-01  9.89D-01  1.26D+00
                    CP:  1.51D+00  1.76D+00  1.29D+00
 E= -2087.74071084111     Delta-E=       -0.000026178464 Rises=F Damp=F
 DIIS: error= 3.47D-05 at cycle   9 NSaved=   9.
 NSaved= 9 IEnMin= 9 EnMin= -2087.74071084111     IErMin= 9 ErrMin= 3.47D-05
 ErrMax= 3.47D-05  0.00D+00 EMaxC= 1.00D-01 BMatC= 7.87D-06 BMatP= 3.21D-05
 IDIUse=1 WtCom= 1.00D+00 WtEn= 0.00D+00
 Coeff-Com: -0.941D-03 0.156D-02 0.266D-02 0.210D-02-0.193D-01-0.107D+00
 Coeff-Com: -0.679D-01 0.343D+00 0.846D+00
 Coeff:     -0.941D-03 0.156D-02 0.266D-02 0.210D-02-0.193D-01-0.107D+00
 Coeff:     -0.679D-01 0.343D+00 0.846D+00
 Gap=     0.111 Goal=   None    Shift=    0.000
 Gap=     0.168 Goal=   None    Shift=    0.000
 RMSDP=3.70D-06 MaxDP=4.39D-04 DE=-2.62D-05 OVMax= 2.18D-03

 Cycle  10  Pass 1  IDiag  1:
 RMSU=  1.53D-06    CP:  9.90D-01  2.08D+00  9.54D-01  9.89D-01  1.26D+00
                    CP:  1.56D+00  1.92D+00  1.56D+00  1.34D+00
 E= -2087.74071747852     Delta-E=       -0.000006637409 Rises=F Damp=F
 DIIS: error= 1.75D-05 at cycle  10 NSaved=  10.
 NSaved=10 IEnMin=10 EnMin= -2087.74071747852     IErMin=10 ErrMin= 1.75D-05
 ErrMax= 1.75D-05  0.00D+00 EMaxC= 1.00D-01 BMatC= 2.00D-06 BMatP= 7.87D-06
 IDIUse=1 WtCom= 1.00D+00 WtEn= 0.00D+00
 Coeff-Com: -0.632D-03 0.923D-03 0.369D-02 0.930D-02 0.998D-02-0.370D-01
 Coeff-Com: -0.111D+00-0.355D-01 0.385D+00 0.775D+00
 Coeff:     -0.632D-03 0.923D-03 0.369D-02 0.930D-02 0.998D-02-0.370D-01
 Coeff:     -0.111D+00-0.355D-01 0.385D+00 0.775D+00
 Gap=     0.111 Goal=   None    Shift=    0.000
 Gap=     0.167 Goal=   None    Shift=    0.000
 RMSDP=1.51D-06 MaxDP=2.00D-04 DE=-6.64D-06 OVMax= 9.18D-04

 Cycle  11  Pass 1  IDiag  1:
 RMSU=  7.64D-07    CP:  9.90D-01  2.08D+00  9.54D-01  9.90D-01  1.26D+00
                    CP:  1.57D+00  1.97D+00  1.64D+00  1.59D+00  1.29D+00
 E= -2087.74071909271     Delta-E=       -0.000001614190 Rises=F Damp=F
 DIIS: error= 8.10D-06 at cycle  11 NSaved=  11.
 NSaved=11 IEnMin=11 EnMin= -2087.74071909271     IErMin=11 ErrMin= 8.10D-06
 ErrMax= 8.10D-06  0.00D+00 EMaxC= 1.00D-01 BMatC= 4.77D-07 BMatP= 2.00D-06
 IDIUse=1 WtCom= 1.00D+00 WtEn= 0.00D+00
 Coeff-Com: -0.879D-04 0.962D-04 0.821D-03 0.320D-02 0.773D-02 0.101D-01
 Coeff-Com: -0.265D-01-0.927D-01-0.326D-01 0.310D+00 0.820D+00
 Coeff:     -0.879D-04 0.962D-04 0.821D-03 0.320D-02 0.773D-02 0.101D-01
 Coeff:     -0.265D-01-0.927D-01-0.326D-01 0.310D+00 0.820D+00
 Gap=     0.111 Goal=   None    Shift=    0.000
 Gap=     0.167 Goal=   None    Shift=    0.000
 RMSDP=7.42D-07 MaxDP=1.34D-04 DE=-1.61D-06 OVMax= 4.69D-04

 Cycle  12  Pass 1  IDiag  1:
 RMSU=  4.41D-07    CP:  9.90D-01  2.08D+00  9.54D-01  9.90D-01  1.26D+00
                    CP:  1.58D+00  1.99D+00  1.67D+00  1.68D+00  1.52D+00
                    CP:  1.34D+00
 E= -2087.74071960020     Delta-E=       -0.000000507493 Rises=F Damp=F
 DIIS: error= 4.98D-06 at cycle  12 NSaved=  12.
 NSaved=12 IEnMin=12 EnMin= -2087.74071960020     IErMin=12 ErrMin= 4.98D-06
 ErrMax= 4.98D-06  0.00D+00 EMaxC= 1.00D-01 BMatC= 1.25D-07 BMatP= 4.77D-07
 IDIUse=1 WtCom= 1.00D+00 WtEn= 0.00D+00
 Coeff-Com:  0.153D-03-0.232D-03-0.854D-03-0.184D-02-0.119D-02 0.133D-01
 Coeff-Com:  0.243D-01-0.168D-01-0.116D+00-0.144D+00 0.233D+00 0.101D+01
 Coeff:      0.153D-03-0.232D-03-0.854D-03-0.184D-02-0.119D-02 0.133D-01
 Coeff:      0.243D-01-0.168D-01-0.116D+00-0.144D+00 0.233D+00 0.101D+01
 Gap=     0.111 Goal=   None    Shift=    0.000
 Gap=     0.167 Goal=   None    Shift=    0.000
 RMSDP=5.68D-07 MaxDP=1.08D-04 DE=-5.07D-07 OVMax= 4.01D-04

 Cycle  13  Pass 1  IDiag  1:
 RMSU=  2.18D-07    CP:  9.90D-01  2.08D+00  9.54D-01  9.90D-01  1.26D+00
                    CP:  1.58D+00  1.99D+00  1.68D+00  1.72D+00  1.66D+00
                    CP:  1.76D+00  1.64D+00
 E= -2087.74071982654     Delta-E=       -0.000000226339 Rises=F Damp=F
 DIIS: error= 3.50D-06 at cycle  13 NSaved=  13.
 NSaved=13 IEnMin=13 EnMin= -2087.74071982654     IErMin=13 ErrMin= 3.50D-06
 ErrMax= 3.50D-06  0.00D+00 EMaxC= 1.00D-01 BMatC= 4.63D-08 BMatP= 1.25D-07
 IDIUse=1 WtCom= 1.00D+00 WtEn= 0.00D+00
 Coeff-Com:  0.752D-04-0.105D-03-0.508D-03-0.152D-02-0.245D-02 0.261D-02
 Coeff-Com:  0.166D-01 0.196D-01-0.336D-01-0.148D+00-0.150D+00 0.382D+00
 Coeff-Com:  0.915D+00
 Coeff:      0.752D-04-0.105D-03-0.508D-03-0.152D-02-0.245D-02 0.261D-02
 Coeff:      0.166D-01 0.196D-01-0.336D-01-0.148D+00-0.150D+00 0.382D+00
 Coeff:      0.915D+00
 Gap=     0.111 Goal=   None    Shift=    0.000
 Gap=     0.167 Goal=   None    Shift=    0.000
 RMSDP=3.55D-07 MaxDP=5.94D-05 DE=-2.26D-07 OVMax= 2.47D-04

 Cycle  14  Pass 1  IDiag  1:
 RMSU=  1.30D-07    CP:  9.90D-01  2.08D+00  9.54D-01  9.90D-01  1.26D+00
                    CP:  1.58D+00  1.99D+00  1.69D+00  1.74D+00  1.73D+00
                    CP:  1.98D+00  2.15D+00  1.57D+00
 E= -2087.74071990556     Delta-E=       -0.000000079016 Rises=F Damp=F
 DIIS: error= 2.62D-06 at cycle  14 NSaved=  14.
 NSaved=14 IEnMin=14 EnMin= -2087.74071990556     IErMin=14 ErrMin= 2.62D-06
 ErrMax= 2.62D-06  0.00D+00 EMaxC= 1.00D-01 BMatC= 1.46D-08 BMatP= 4.63D-08
 IDIUse=1 WtCom= 1.00D+00 WtEn= 0.00D+00
 Coeff-Com: -0.223D-04 0.369D-04 0.121D-03 0.916D-04-0.424D-03-0.386D-02
 Coeff-Com: -0.320D-02 0.129D-01 0.304D-01-0.304D-02-0.133D+00-0.213D+00
 Coeff-Com:  0.325D+00 0.988D+00
 Coeff:     -0.223D-04 0.369D-04 0.121D-03 0.916D-04-0.424D-03-0.386D-02
 Coeff:     -0.320D-02 0.129D-01 0.304D-01-0.304D-02-0.133D+00-0.213D+00
 Coeff:      0.325D+00 0.988D+00
 Gap=     0.111 Goal=   None    Shift=    0.000
 Gap=     0.167 Goal=   None    Shift=    0.000
 RMSDP=2.41D-07 MaxDP=3.76D-05 DE=-7.90D-08 OVMax= 1.60D-04

 Cycle  15  Pass 1  IDiag  1:
 RMSU=  7.42D-08    CP:  9.90D-01  2.08D+00  9.54D-01  9.90D-01  1.26D+00
                    CP:  1.58D+00  2.00D+00  1.69D+00  1.74D+00  1.75D+00
                    CP:  2.10D+00  2.44D+00  2.16D+00  1.62D+00
 E= -2087.74071993723     Delta-E=       -0.000000031670 Rises=F Damp=F
 DIIS: error= 1.97D-06 at cycle  15 NSaved=  15.
 NSaved=15 IEnMin=15 EnMin= -2087.74071993723     IErMin=15 ErrMin= 1.97D-06
 ErrMax= 1.97D-06  0.00D+00 EMaxC= 1.00D-01 BMatC= 4.70D-09 BMatP= 1.46D-08
 IDIUse=1 WtCom= 1.00D+00 WtEn= 0.00D+00
 Coeff-Com: -0.203D-04 0.295D-04 0.146D-03 0.370D-03 0.508D-03-0.162D-02
 Coeff-Com: -0.491D-02-0.850D-03 0.168D-01 0.338D-01 0.615D-03-0.160D+00
 Coeff-Com: -0.146D+00 0.246D+00 0.101D+01
 Coeff:     -0.203D-04 0.295D-04 0.146D-03 0.370D-03 0.508D-03-0.162D-02
 Coeff:     -0.491D-02-0.850D-03 0.168D-01 0.338D-01 0.615D-03-0.160D+00
 Coeff:     -0.146D+00 0.246D+00 0.101D+01
 Gap=     0.111 Goal=   None    Shift=    0.000
 Gap=     0.167 Goal=   None    Shift=    0.000
 RMSDP=1.41D-07 MaxDP=1.93D-05 DE=-3.17D-08 OVMax= 9.12D-05

 Cycle  16  Pass 1  IDiag  1:
 RMSU=  3.97D-08    CP:  9.90D-01  2.08D+00  9.54D-01  9.90D-01  1.26D+00
                    CP:  1.58D+00  2.00D+00  1.69D+00  1.74D+00  1.76D+00
                    CP:  2.14D+00  2.58D+00  2.48D+00  2.16D+00  1.63D+00
 E= -2087.74071994848     Delta-E=       -0.000000011251 Rises=F Damp=F
 DIIS: error= 1.47D-06 at cycle  16 NSaved=  16.
 NSaved=16 IEnMin=16 EnMin= -2087.74071994848     IErMin=16 ErrMin= 1.47D-06
 ErrMax= 1.47D-06  0.00D+00 EMaxC= 1.00D-01 BMatC= 2.55D-09 BMatP= 4.70D-09
 IDIUse=1 WtCom= 1.00D+00 WtEn= 0.00D+00
 Coeff-Com: -0.266D-05 0.322D-05 0.154D-04 0.113D-03 0.334D-03 0.681D-03
 Coeff-Com: -0.915D-03-0.510D-02-0.422D-02 0.155D-01 0.525D-01 0.712D-02
 Coeff-Com: -0.183D+00-0.265D+00 0.482D+00 0.901D+00
 Coeff:     -0.266D-05 0.322D-05 0.154D-04 0.113D-03 0.334D-03 0.681D-03
 Coeff:     -0.915D-03-0.510D-02-0.422D-02 0.155D-01 0.525D-01 0.712D-02
 Coeff:     -0.183D+00-0.265D+00 0.482D+00 0.901D+00
 Gap=     0.111 Goal=   None    Shift=    0.000
 Gap=     0.167 Goal=   None    Shift=    0.000
 RMSDP=8.77D-08 MaxDP=1.16D-05 DE=-1.13D-08 OVMax= 5.49D-05

 Cycle  17  Pass 1  IDiag  1:
 RMSU=  2.96D-08    CP:  9.90D-01  2.08D+00  9.54D-01  9.90D-01  1.26D+00
                    CP:  1.58D+00  2.00D+00  1.69D+00  1.75D+00  1.76D+00
                    CP:  2.15D+00  2.63D+00  2.67D+00  2.46D+00  2.20D+00
                    CP:  1.65D+00
 E= -2087.74071995363     Delta-E=       -0.000000005154 Rises=F Damp=F
 DIIS: error= 1.09D-06 at cycle  17 NSaved=  17.
 NSaved=17 IEnMin=17 EnMin= -2087.74071995363     IErMin=17 ErrMin= 1.09D-06
 ErrMax= 1.09D-06  0.00D+00 EMaxC= 1.00D-01 BMatC= 1.06D-09 BMatP= 2.55D-09
 IDIUse=1 WtCom= 1.00D+00 WtEn= 0.00D+00
 Coeff-Com:  0.744D-05-0.112D-04-0.568D-04-0.113D-03-0.970D-04 0.992D-03
 Coeff-Com:  0.194D-02-0.141D-02-0.927D-02-0.987D-02 0.175D-01 0.738D-01
 Coeff-Com:  0.597D-02-0.211D+00-0.300D+00 0.308D+00 0.112D+01
 Coeff:      0.744D-05-0.112D-04-0.568D-04-0.113D-03-0.970D-04 0.992D-03
 Coeff:      0.194D-02-0.141D-02-0.927D-02-0.987D-02 0.175D-01 0.738D-01
 Coeff:      0.597D-02-0.211D+00-0.300D+00 0.308D+00 0.112D+01
 Gap=     0.111 Goal=   None    Shift=    0.000
 Gap=     0.167 Goal=   None    Shift=    0.000
 RMSDP=6.78D-08 MaxDP=9.82D-06 DE=-5.15D-09 OVMax= 5.20D-05

 Cycle  18  Pass 1  IDiag  1:
 RMSU=  1.99D-08    CP:  9.90D-01  2.08D+00  9.54D-01  9.90D-01  1.26D+00
                    CP:  1.58D+00  2.00D+00  1.69D+00  1.75D+00  1.77D+00
                    CP:  2.16D+00  2.65D+00  2.78D+00  2.68D+00  2.65D+00
                    CP:  2.52D+00  1.63D+00
 E= -2087.74071995673     Delta-E=       -0.000000003098 Rises=F Damp=F
 DIIS: error= 7.15D-07 at cycle  18 NSaved=  18.
 NSaved=18 IEnMin=18 EnMin= -2087.74071995673     IErMin=18 ErrMin= 7.15D-07
 ErrMax= 7.15D-07  0.00D+00 EMaxC= 1.00D-01 BMatC= 5.94D-10 BMatP= 1.06D-09
 IDIUse=1 WtCom= 1.00D+00 WtEn= 0.00D+00
 Coeff-Com:  0.502D-05-0.754D-05-0.378D-04-0.106D-03-0.187D-03 0.279D-03
 Coeff-Com:  0.150D-02 0.131D-02-0.369D-02-0.117D-01-0.126D-01 0.398D-01
 Coeff-Com:  0.823D-01-0.621D-02-0.383D+00-0.216D+00 0.650D+00 0.858D+00
 Coeff:      0.502D-05-0.754D-05-0.378D-04-0.106D-03-0.187D-03 0.279D-03
 Coeff:      0.150D-02 0.131D-02-0.369D-02-0.117D-01-0.126D-01 0.398D-01
 Coeff:      0.823D-01-0.621D-02-0.383D+00-0.216D+00 0.650D+00 0.858D+00
 Gap=     0.111 Goal=   None    Shift=    0.000
 Gap=     0.167 Goal=   None    Shift=    0.000
 RMSDP=4.11D-08 MaxDP=6.52D-06 DE=-3.10D-09 OVMax= 3.65D-05

 Cycle  19  Pass 1  IDiag  1:
 RMSU=  1.35D-08    CP:  9.90D-01  2.08D+00  9.54D-01  9.90D-01  1.26D+00
                    CP:  1.58D+00  2.00D+00  1.69D+00  1.74D+00  1.77D+00
                    CP:  2.16D+00  2.65D+00  2.83D+00  2.77D+00  2.89D+00
                    CP:  3.00D+00  2.32D+00  1.60D+00
 E= -2087.74071995785     Delta-E=       -0.000000001116 Rises=F Damp=F
 DIIS: error= 4.45D-07 at cycle  19 NSaved=  19.
 NSaved=19 IEnMin=19 EnMin= -2087.74071995785     IErMin=19 ErrMin= 4.45D-07
 ErrMax= 4.45D-07  0.00D+00 EMaxC= 1.00D-01 BMatC= 2.37D-10 BMatP= 5.94D-10
 IDIUse=1 WtCom= 1.00D+00 WtEn= 0.00D+00
 Coeff-Com: -0.267D-05 0.400D-05 0.162D-04 0.178D-04-0.285D-04-0.447D-03
 Coeff-Com: -0.389D-03 0.151D-02 0.342D-02 0.320D-03-0.171D-01-0.222D-01
 Coeff-Com:  0.377D-01 0.121D+00-0.223D-01-0.277D+00-0.333D+00 0.427D+00
 Coeff-Com:  0.108D+01
 Coeff:     -0.267D-05 0.400D-05 0.162D-04 0.178D-04-0.285D-04-0.447D-03
 Coeff:     -0.389D-03 0.151D-02 0.342D-02 0.320D-03-0.171D-01-0.222D-01
 Coeff:      0.377D-01 0.121D+00-0.223D-01-0.277D+00-0.333D+00 0.427D+00
 Coeff:      0.108D+01
 Gap=     0.111 Goal=   None    Shift=    0.000
 Gap=     0.167 Goal=   None    Shift=    0.000
 RMSDP=3.33D-08 MaxDP=5.43D-06 DE=-1.12D-09 OVMax= 3.00D-05

 Cycle  20  Pass 1  IDiag  1:
 RMSU=  1.86D-08    CP:  9.90D-01  2.08D+00  9.54D-01  9.90D-01  1.26D+00
                    CP:  1.58D+00  2.00D+00  1.69D+00  1.74D+00  1.77D+00
                    CP:  2.16D+00  2.65D+00  2.84D+00  2.80D+00  3.00D+00
                    CP:  3.00D+00  2.79D+00  2.55D+00  1.63D+00
 E= -2087.74071995860     Delta-E=       -0.000000000758 Rises=F Damp=F
 DIIS: error= 2.13D-07 at cycle  20 NSaved=  20.
 NSaved=20 IEnMin=20 EnMin= -2087.74071995860     IErMin=20 ErrMin= 2.13D-07
 ErrMax= 2.13D-07  0.00D+00 EMaxC= 1.00D-01 BMatC= 8.85D-11 BMatP= 2.37D-10
 IDIUse=1 WtCom= 1.00D+00 WtEn= 0.00D+00
 Coeff-Com: -0.284D-05 0.429D-05 0.208D-04 0.438D-04 0.503D-04-0.319D-03
 Coeff-Com: -0.704D-03 0.359D-03 0.299D-02 0.411D-02-0.481D-02-0.243D-01
 Coeff-Com: -0.851D-02 0.622D-01 0.118D+00-0.560D-01-0.394D+00-0.790D-01
 Coeff-Com:  0.549D+00 0.831D+00
 Coeff:     -0.284D-05 0.429D-05 0.208D-04 0.438D-04 0.503D-04-0.319D-03
 Coeff:     -0.704D-03 0.359D-03 0.299D-02 0.411D-02-0.481D-02-0.243D-01
 Coeff:     -0.851D-02 0.622D-01 0.118D+00-0.560D-01-0.394D+00-0.790D-01
 Coeff:      0.549D+00 0.831D+00
 Gap=     0.111 Goal=   None    Shift=    0.000
 Gap=     0.167 Goal=   None    Shift=    0.000
 RMSDP=1.67D-08 MaxDP=2.61D-06 DE=-7.58D-10 OVMax= 1.37D-05

 Cycle  21  Pass 1  IDiag  1:
 Restarting incremental Fock formation.
 E= -2087.74071995874     Delta-E=       -0.000000000136 Rises=F Damp=F
 DIIS: error= 1.06D-07 at cycle  21 NSaved=  20.
 NSaved=20 IEnMin=20 EnMin= -2087.74071995874     IErMin=20 ErrMin= 1.06D-07
 ErrMax= 1.06D-07  0.00D+00 EMaxC= 1.00D-01 BMatC= 2.63D-11 BMatP= 8.85D-11
 IDIUse=1 WtCom= 1.00D+00 WtEn= 0.00D+00
 Coeff-Com:  0.906D-07 0.332D-06 0.581D-05 0.244D-04 0.652D-04-0.102D-03
 Coeff-Com: -0.504D-03-0.317D-03 0.132D-02 0.548D-02 0.681D-03-0.174D-01
 Coeff-Com: -0.270D-01 0.494D-01 0.909D-01-0.216D-01-0.193D+00-0.218D+00
 Coeff-Com:  0.293D+00 0.104D+01
 Coeff:      0.906D-07 0.332D-06 0.581D-05 0.244D-04 0.652D-04-0.102D-03
 Coeff:     -0.504D-03-0.317D-03 0.132D-02 0.548D-02 0.681D-03-0.174D-01
 Coeff:     -0.270D-01 0.494D-01 0.909D-01-0.216D-01-0.193D+00-0.218D+00
 Coeff:      0.293D+00 0.104D+01
 Gap=     0.111 Goal=   None    Shift=    0.000
 Gap=     0.167 Goal=   None    Shift=    0.000
 RMSDP=1.23D-08 MaxDP=2.02D-06 DE=-1.36D-10 OVMax= 8.06D-06

 Cycle  22  Pass 1  IDiag  1:
 RMSU=  1.23D-08    CP:  1.00D+00
 E= -2087.74071995857     Delta-E=        0.000000000174 Rises=F Damp=F
 DIIS: error= 4.32D-08 at cycle  22 NSaved=  20.
 NSaved=20 IEnMin=19 EnMin= -2087.74071995874     IErMin=20 ErrMin= 4.32D-08
 ErrMax= 4.32D-08  0.00D+00 EMaxC= 1.00D-01 BMatC= 9.89D-12 BMatP= 2.63D-11
 IDIUse=1 WtCom= 1.00D+00 WtEn= 0.00D+00
 Coeff-Com: -0.295D-05-0.378D-05 0.239D-05 0.107D-03 0.109D-03-0.328D-03
 Coeff-Com: -0.811D-03-0.466D-03 0.367D-02 0.587D-02-0.500D-02-0.282D-01
 Coeff-Com: -0.112D-01 0.570D-01 0.104D+00-0.571D-01-0.264D+00-0.149D+00
 Coeff-Com:  0.468D+00 0.877D+00
 Coeff:     -0.295D-05-0.378D-05 0.239D-05 0.107D-03 0.109D-03-0.328D-03
 Coeff:     -0.811D-03-0.466D-03 0.367D-02 0.587D-02-0.500D-02-0.282D-01
 Coeff:     -0.112D-01 0.570D-01 0.104D+00-0.571D-01-0.264D+00-0.149D+00
 Coeff:      0.468D+00 0.877D+00
 Gap=     0.111 Goal=   None    Shift=    0.000
 Gap=     0.167 Goal=   None    Shift=    0.000
 RMSDP=6.94D-09 MaxDP=1.41D-06 DE= 1.74D-10 OVMax= 3.82D-06

 Cycle  23  Pass 1  IDiag  1:
 RMSU=  2.87D-09    CP:  1.00D+00  1.51D+00
 E= -2087.74071995905     Delta-E=       -0.000000000487 Rises=F Damp=F
 DIIS: error= 1.75D-08 at cycle  23 NSaved=  20.
 NSaved=20 IEnMin=20 EnMin= -2087.74071995905     IErMin=20 ErrMin= 1.75D-08
 ErrMax= 1.75D-08  0.00D+00 EMaxC= 1.00D-01 BMatC= 2.56D-12 BMatP= 9.89D-12
 IDIUse=1 WtCom= 1.00D+00 WtEn= 0.00D+00
 Coeff-Com:  0.138D-06-0.351D-05 0.635D-06 0.267D-04 0.522D-04-0.254D-05
 Coeff-Com: -0.420D-03-0.605D-03 0.455D-03 0.408D-02 0.230D-02-0.180D-01
 Coeff-Com: -0.154D-01 0.320D-01 0.500D-01-0.247D-03-0.148D+00-0.202D+00
 Coeff-Com:  0.302D+00 0.994D+00
 Coeff:      0.138D-06-0.351D-05 0.635D-06 0.267D-04 0.522D-04-0.254D-05
 Coeff:     -0.420D-03-0.605D-03 0.455D-03 0.408D-02 0.230D-02-0.180D-01
 Coeff:     -0.154D-01 0.320D-01 0.500D-01-0.247D-03-0.148D+00-0.202D+00
 Coeff:      0.302D+00 0.994D+00
 Gap=     0.111 Goal=   None    Shift=    0.000
 Gap=     0.167 Goal=   None    Shift=    0.000
 RMSDP=3.80D-09 MaxDP=5.83D-07 DE=-4.87D-10 OVMax= 2.34D-06

 Error on total polarization charges =  0.02286
 SCF Done:  E(UM062X) =  -2087.74071996     A.U. after   23 cycles
            NFock= 23  Conv=0.38D-08     -V/T= 2.0052
 <Sx>= 0.0000 <Sy>= 0.0000 <Sz>= 0.5000 <S**2>= 0.7859 S= 0.5178
 <L.S>= 0.000000000000E+00
 KE= 2.076845584801D+03 PE=-1.480835823879D+04 EE= 5.694476079216D+03
 Annihilation of the first spin contaminant:
 S**2 before annihilation     0.7859,   after     0.7508
 Leave Link  502 at Thu Nov  6 06:31:34 2025, MaxMem= 30870077440 cpu:          115818.4 elap:            1831.8
 (Enter /public/software/gauss/g16/l601.exe)
 Copying SCF densities to generalized density rwf, IOpCl= 1 IROHF=0.

 **********************************************************************

            Population analysis using the SCF density.

 **********************************************************************

 Orbital symmetries:
 Alpha Orbitals:
       Occupied  (A) (A) (A) (A) (A) (A) (A) (A) (A) (A) (A) (A)
                 (A) (A) (A) (A) (A) (A) (A) (A) (A) (A) (A) (A)
                 (A) (A) (A) (A) (A) (A) (A) (A) (A) (A) (A) (A)
                 (A) (A) (A) (A) (A) (A) (A) (A) (A) (A) (A) (A)
                 (A) (A) (A) (A) (A) (A) (A) (A) (A) (A) (A) (A)
                 (A) (A) (A) (A) (A) (A) (A) (A) (A) (A) (A) (A)
                 (A) (A) (A) (A) (A) (A) (A) (A) (A) (A) (A) (A)
                 (A) (A) (A) (A) (A) (A) (A) (A) (A) (A) (A) (A)
                 (A) (A) (A) (A) (A) (A) (A) (A) (A) (A) (A) (A)
                 (A) (A) (A) (A) (A) (A) (A) (A) (A) (A) (A) (A)
                 (A) (A) (A) (A) (A) (A) (A) (A) (A) (A) (A) (A)
                 (A) (A) (A) (A) (A) (A) (A) (A) (A) (A) (A) (A)
                 (A) (A) (A) (A) (A) (A) (A) (A) (A) (A) (A)
       Virtual   (A) (A) (A) (A) (A) (A) (A) (A) (A) (A) (A) (A)
                 (A) (A) (A) (A) (A) (A) (A) (A) (A) (A) (A) (A)
                 (A) (A) (A) (A) (A) (A) (A) (A) (A) (A) (A) (A)
                 (A) (A) (A) (A) (A) (A) (A) (A) (A) (A) (A) (A)
                 (A) (A) (A) (A) (A) (A) (A) (A) (A) (A) (A) (A)
                 (A) (A) (A) (A) (A) (A) (A) (A) (A) (A) (A) (A)
                 (A) (A) (A) (A) (A) (A) (A) (A) (A) (A) (A) (A)
                 (A) (A) (A) (A) (A) (A) (A) (A) (A) (A) (A) (A)
                 (A) (A) (A) (A) (A) (A) (A) (A) (A) (A) (A) (A)
                 (A) (A) (A) (A) (A) (A) (A) (A) (A) (A) (A) (A)
                 (A) (A) (A) (A) (A) (A) (A) (A) (A) (A) (A) (A)
                 (A) (A) (A) (A) (A) (A) (A) (A) (A) (A) (A) (A)
                 (A) (A) (A) (A) (A) (A) (A) (A) (A) (A) (A) (A)
                 (A) (A) (A) (A) (A) (A) (A) (A) (A) (A) (A) (A)
                 (A) (A) (A) (A) (A) (A) (A) (A) (A) (A) (A) (A)
                 (A) (A) (A) (A) (A) (A) (A) (A) (A) (A) (A) (A)
                 (A) (A) (A) (A) (A) (A) (A) (A) (A) (A) (A) (A)
                 (A) (A) (A) (A) (A) (A) (A) (A) (A) (A) (A) (A)
                 (A) (A) (A) (A) (A) (A) (A) (A) (A) (A) (A) (A)
                 (A) (A) (A) (A) (A) (A) (A) (A) (A) (A) (A) (A)
                 (A) (A) (A) (A) (A) (A) (A) (A) (A) (A) (A) (A)
                 (A) (A) (A) (A) (A) (A) (A) (A) (A) (A) (A) (A)
                 (A) (A) (A) (A) (A) (A) (A) (A) (A) (A) (A) (A)
                 (A) (A) (A) (A) (A) (A) (A) (A) (A) (A) (A) (A)
                 (A) (A) (A) (A) (A) (A) (A) (A) (A) (A) (A) (A)
                 (A) (A) (A) (A) (A) (A) (A) (A) (A) (A) (A) (A)
                 (A) (A) (A) (A) (A) (A) (A) (A) (A) (A) (A) (A)
                 (A) (A) (A) (A) (A) (A) (A) (A) (A) (A) (A) (A)
                 (A) (A) (A) (A) (A) (A) (A) (A) (A) (A) (A) (A)
                 (A) (A) (A) (A) (A) (A) (A) (A) (A) (A) (A) (A)
                 (A) (A) (A) (A) (A) (A) (A) (A) (A) (A) (A) (A)
                 (A) (A) (A) (A) (A) (A) (A) (A) (A) (A) (A) (A)
                 (A) (A) (A) (A) (A) (A) (A) (A) (A) (A) (A) (A)
                 (A) (A) (A) (A) (A) (A) (A) (A) (A) (A) (A) (A)
                 (A) (A) (A) (A) (A) (A) (A) (A) (A) (A) (A) (A)
                 (A) (A) (A) (A) (A) (A) (A) (A) (A) (A) (A) (A)
                 (A) (A) (A) (A) (A) (A) (A) (A) (A) (A) (A) (A)
                 (A) (A) (A) (A) (A) (A) (A) (A) (A) (A) (A) (A)
                 (A) (A) (A) (A) (A) (A) (A) (A) (A) (A) (A) (A)
                 (A) (A) (A) (A) (A) (A) (A) (A) (A) (A) (A) (A)
                 (A) (A) (A) (A) (A) (A) (A) (A) (A) (A) (A) (A)
                 (A) (A) (A) (A) (A) (A) (A) (A) (A) (A) (A) (A)
                 (A) (A) (A) (A) (A) (A) (A) (A) (A) (A) (A) (A)
                 (A) (A) (A) (A) (A) (A) (A) (A) (A) (A) (A) (A)
                 (A) (A) (A) (A) (A) (A) (A) (A) (A) (A) (A) (A)
                 (A) (A) (A) (A) (A) (A) (A) (A) (A) (A) (A) (A)
                 (A) (A) (A) (A) (A) (A) (A) (A) (A) (A) (A) (A)
                 (A) (A) (A) (A) (A) (A) (A) (A) (A) (A) (A) (A)
                 (A) (A) (A) (A) (A) (A) (A) (A) (A) (A) (A) (A)
                 (A) (A) (A) (A) (A) (A) (A) (A) (A) (A) (A) (A)
                 (A) (A) (A) (A) (A) (A) (A) (A) (A) (A) (A) (A)
                 (A) (A) (A) (A) (A) (A) (A) (A) (A) (A) (A) (A)
                 (A) (A) (A) (A) (A) (A) (A) (A) (A) (A) (A) (A)
                 (A) (A) (A) (A) (A) (A) (A) (A) (A) (A) (A) (A)
                 (A) (A) (A) (A) (A) (A) (A) (A) (A) (A) (A) (A)
                 (A) (A) (A) (A) (A) (A) (A) (A) (A) (A) (A) (A)
                 (A) (A) (A) (A) (A) (A) (A) (A) (A) (A) (A) (A)
                 (A) (A) (A) (A) (A) (A) (A) (A) (A) (A) (A) (A)
                 (A) (A) (A) (A) (A) (A) (A) (A) (A) (A) (A) (A)
                 (A) (A) (A) (A) (A) (A) (A) (A) (A) (A) (A) (A)
                 (A) (A) (A) (A) (A) (A) (A) (A) (A) (A) (A) (A)
                 (A) (A) (A) (A) (A) (A) (A) (A) (A) (A) (A) (A)
                 (A) (A) (A) (A) (A) (A) (A) (A) (A) (A) (A) (A)
                 (A) (A) (A) (A) (A) (A) (A) (A) (A) (A) (A) (A)
                 (A) (A) (A) (A) (A) (A) (A) (A) (A) (A) (A) (A)
                 (A) (A) (A) (A) (A) (A) (A) (A) (A) (A) (A) (A)
                 (A) (A) (A) (A) (A) (A) (A) (A) (A) (A) (A) (A)
                 (A) (A) (A) (A) (A) (A) (A) (A) (A) (A) (A) (A)
                 (A) (A) (A) (A) (A) (A) (A) (A) (A) (A) (A) (A)
                 (A) (A) (A) (A) (A) (A) (A) (A) (A) (A) (A) (A)
                 (A) (A) (A) (A) (A) (A) (A) (A) (A) (A) (A) (A)
                 (A) (A) (A) (A) (A) (A) (A) (A) (A) (A) (A) (A)
                 (A) (A) (A) (A) (A) (A) (A) (A) (A) (A) (A) (A)
                 (A) (A) (A) (A) (A) (A) (A) (A) (A) (A) (A) (A)
                 (A) (A) (A) (A) (A) (A) (A) (A) (A) (A) (A) (A)
                 (A) (A) (A) (A) (A) (A) (A) (A) (A) (A) (A) (A)
                 (A) (A) (A) (A) (A) (A) (A) (A) (A) (A) (A) (A)
                 (A) (A) (A) (A) (A) (A) (A) (A) (A) (A) (A) (A)
                 (A) (A) (A) (A) (A) (A) (A) (A) (A) (A) (A) (A)
                 (A) (A) (A) (A) (A) (A) (A) (A) (A) (A) (A) (A)
                 (A) (A) (A) (A) (A) (A) (A) (A) (A) (A) (A) (A)
                 (A) (A) (A) (A) (A) (A) (A) (A) (A) (A) (A) (A)
                 (A) (A) (A) (A) (A) (A) (A) (A) (A) (A) (A) (A)
                 (A) (A) (A) (A) (A) (A) (A) (A) (A) (A) (A) (A)
                 (A) (A) (A) (A) (A) (A) (A) (A) (A) (A) (A) (A)
                 (A) (A) (A) (A) (A) (A) (A) (A) (A) (A) (A) (A)
                 (A) (A) (A) (A) (A) (A) (A) (A) (A) (A) (A) (A)
                 (A) (A) (A) (A) (A) (A) (A) (A) (A) (A) (A) (A)
                 (A) (A) (A) (A) (A) (A) (A) (A) (A) (A) (A) (A)
                 (A) (A) (A) (A) (A) (A) (A) (A) (A) (A) (A) (A)
                 (A) (A) (A) (A) (A) (A) (A) (A) (A) (A) (A) (A)
                 (A) (A) (A) (A) (A) (A) (A) (A) (A) (A) (A) (A)
                 (A) (A) (A) (A) (A) (A) (A) (A) (A) (A) (A) (A)
                 (A) (A) (A) (A) (A) (A) (A) (A) (A) (A) (A) (A)
                 (A) (A) (A) (A) (A) (A) (A) (A) (A) (A) (A) (A)
                 (A) (A) (A) (A) (A) (A) (A) (A) (A) (A) (A) (A)
                 (A) (A) (A) (A) (A) (A) (A) (A) (A) (A) (A) (A)
                 (A) (A) (A) (A) (A) (A) (A) (A) (A) (A) (A) (A)
                 (A) (A) (A) (A) (A) (A) (A) (A) (A) (A) (A) (A)
                 (A) (A) (A) (A) (A) (A) (A) (A) (A) (A) (A) (A)
                 (A) (A) (A) (A) (A) (A) (A) (A) (A) (A) (A) (A)
                 (A) (A) (A) (A) (A) (A) (A) (A) (A) (A) (A) (A)
                 (A) (A) (A) (A) (A) (A) (A) (A) (A) (A) (A) (A)
                 (A) (A) (A) (A) (A) (A) (A) (A) (A) (A) (A) (A)
                 (A) (A) (A) (A) (A) (A) (A) (A) (A) (A) (A) (A)
                 (A) (A) (A) (A) (A) (A) (A) (A) (A) (A) (A) (A)
                 (A) (A) (A) (A) (A) (A) (A) (A) (A) (A) (A) (A)
                 (A) (A) (A) (A) (A) (A) (A) (A) (A) (A) (A) (A)
                 (A) (A) (A) (A) (A) (A) (A) (A) (A) (A) (A) (A)
                 (A) (A) (A) (A) (A) (A) (A) (A) (A) (A) (A) (A)
                 (A) (A) (A) (A) (A) (A) (A) (A) (A) (A) (A) (A)
                 (A) (A) (A) (A) (A) (A) (A) (A) (A) (A) (A) (A)
                 (A) (A) (A) (A) (A) (A) (A) (A) (A) (A) (A) (A)
                 (A) (A) (A) (A) (A) (A) (A) (A) (A) (A) (A) (A)
                 (A) (A) (A) (A) (A) (A) (A) (A) (A) (A) (A) (A)
                 (A) (A) (A) (A) (A) (A) (A) (A) (A) (A) (A) (A)
                 (A) (A) (A) (A) (A) (A) (A) (A) (A) (A) (A) (A)
                 (A) (A) (A) (A) (A) (A) (A) (A) (A) (A) (A) (A)
                 (A) (A) (A) (A) (A) (A) (A) (A) (A) (A) (A) (A)
                 (A) (A) (A) (A) (A) (A) (A) (A) (A) (A) (A) (A)
                 (A) (A) (A) (A) (A) (A) (A) (A) (A) (A) (A) (A)
                 (A) (A) (A) (A) (A) (A) (A) (A) (A) (A) (A) (A)
                 (A) (A) (A) (A) (A) (A) (A) (A) (A) (A) (A) (A)
                 (A) (A) (A) (A) (A) (A) (A) (A) (A) (A) (A) (A)
                 (A) (A) (A) (A) (A) (A) (A) (A) (A) (A) (A) (A)
                 (A) (A) (A) (A) (A) (A) (A) (A) (A) (A) (A) (A)
                 (A) (A) (A) (A) (A) (A) (A) (A) (A) (A) (A) (A)
                 (A) (A) (A) (A) (A) (A) (A) (A) (A) (A) (A) (A)
                 (A) (A) (A) (A) (A) (A) (A) (A) (A) (A) (A) (A)
                 (A) (A) (A) (A) (A) (A) (A) (A)
 Beta  Orbitals:
       Occupied  (A) (A) (A) (A) (A) (A) (A) (A) (A) (A) (A) (A)
                 (A) (A) (A) (A) (A) (A) (A) (A) (A) (A) (A) (A)
                 (A) (A) (A) (A) (A) (A) (A) (A) (A) (A) (A) (A)
                 (A) (A) (A) (A) (A) (A) (A) (A) (A) (A) (A) (A)
                 (A) (A) (A) (A) (A) (A) (A) (A) (A) (A) (A) (A)
                 (A) (A) (A) (A) (A) (A) (A) (A) (A) (A) (A) (A)
                 (A) (A) (A) (A) (A) (A) (A) (A) (A) (A) (A) (A)
                 (A) (A) (A) (A) (A) (A) (A) (A) (A) (A) (A) (A)
                 (A) (A) (A) (A) (A) (A) (A) (A) (A) (A) (A) (A)
                 (A) (A) (A) (A) (A) (A) (A) (A) (A) (A) (A) (A)
                 (A) (A) (A) (A) (A) (A) (A) (A) (A) (A) (A) (A)
                 (A) (A) (A) (A) (A) (A) (A) (A) (A) (A) (A) (A)
                 (A) (A) (A) (A) (A) (A) (A) (A) (A) (A)
       Virtual   (A) (A) (A) (A) (A) (A) (A) (A) (A) (A) (A) (A)
                 (A) (A) (A) (A) (A) (A) (A) (A) (A) (A) (A) (A)
                 (A) (A) (A) (A) (A) (A) (A) (A) (A) (A) (A) (A)
                 (A) (A) (A) (A) (A) (A) (A) (A) (A) (A) (A) (A)
                 (A) (A) (A) (A) (A) (A) (A) (A) (A) (A) (A) (A)
                 (A) (A) (A) (A) (A) (A) (A) (A) (A) (A) (A) (A)
                 (A) (A) (A) (A) (A) (A) (A) (A) (A) (A) (A) (A)
                 (A) (A) (A) (A) (A) (A) (A) (A) (A) (A) (A) (A)
                 (A) (A) (A) (A) (A) (A) (A) (A) (A) (A) (A) (A)
                 (A) (A) (A) (A) (A) (A) (A) (A) (A) (A) (A) (A)
                 (A) (A) (A) (A) (A) (A) (A) (A) (A) (A) (A) (A)
                 (A) (A) (A) (A) (A) (A) (A) (A) (A) (A) (A) (A)
                 (A) (A) (A) (A) (A) (A) (A) (A) (A) (A) (A) (A)
                 (A) (A) (A) (A) (A) (A) (A) (A) (A) (A) (A) (A)
                 (A) (A) (A) (A) (A) (A) (A) (A) (A) (A) (A) (A)
                 (A) (A) (A) (A) (A) (A) (A) (A) (A) (A) (A) (A)
                 (A) (A) (A) (A) (A) (A) (A) (A) (A) (A) (A) (A)
                 (A) (A) (A) (A) (A) (A) (A) (A) (A) (A) (A) (A)
                 (A) (A) (A) (A) (A) (A) (A) (A) (A) (A) (A) (A)
                 (A) (A) (A) (A) (A) (A) (A) (A) (A) (A) (A) (A)
                 (A) (A) (A) (A) (A) (A) (A) (A) (A) (A) (A) (A)
                 (A) (A) (A) (A) (A) (A) (A) (A) (A) (A) (A) (A)
                 (A) (A) (A) (A) (A) (A) (A) (A) (A) (A) (A) (A)
                 (A) (A) (A) (A) (A) (A) (A) (A) (A) (A) (A) (A)
                 (A) (A) (A) (A) (A) (A) (A) (A) (A) (A) (A) (A)
                 (A) (A) (A) (A) (A) (A) (A) (A) (A) (A) (A) (A)
                 (A) (A) (A) (A) (A) (A) (A) (A) (A) (A) (A) (A)
                 (A) (A) (A) (A) (A) (A) (A) (A) (A) (A) (A) (A)
                 (A) (A) (A) (A) (A) (A) (A) (A) (A) (A) (A) (A)
                 (A) (A) (A) (A) (A) (A) (A) (A) (A) (A) (A) (A)
                 (A) (A) (A) (A) (A) (A) (A) (A) (A) (A) (A) (A)
                 (A) (A) (A) (A) (A) (A) (A) (A) (A) (A) (A) (A)
                 (A) (A) (A) (A) (A) (A) (A) (A) (A) (A) (A) (A)
                 (A) (A) (A) (A) (A) (A) (A) (A) (A) (A) (A) (A)
                 (A) (A) (A) (A) (A) (A) (A) (A) (A) (A) (A) (A)
                 (A) (A) (A) (A) (A) (A) (A) (A) (A) (A) (A) (A)
                 (A) (A) (A) (A) (A) (A) (A) (A) (A) (A) (A) (A)
                 (A) (A) (A) (A) (A) (A) (A) (A) (A) (A) (A) (A)
                 (A) (A) (A) (A) (A) (A) (A) (A) (A) (A) (A) (A)
                 (A) (A) (A) (A) (A) (A) (A) (A) (A) (A) (A) (A)
                 (A) (A) (A) (A) (A) (A) (A) (A) (A) (A) (A) (A)
                 (A) (A) (A) (A) (A) (A) (A) (A) (A) (A) (A) (A)
                 (A) (A) (A) (A) (A) (A) (A) (A) (A) (A) (A) (A)
                 (A) (A) (A) (A) (A) (A) (A) (A) (A) (A) (A) (A)
                 (A) (A) (A) (A) (A) (A) (A) (A) (A) (A) (A) (A)
                 (A) (A) (A) (A) (A) (A) (A) (A) (A) (A) (A) (A)
                 (A) (A) (A) (A) (A) (A) (A) (A) (A) (A) (A) (A)
                 (A) (A) (A) (A) (A) (A) (A) (A) (A) (A) (A) (A)
                 (A) (A) (A) (A) (A) (A) (A) (A) (A) (A) (A) (A)
                 (A) (A) (A) (A) (A) (A) (A) (A) (A) (A) (A) (A)
                 (A) (A) (A) (A) (A) (A) (A) (A) (A) (A) (A) (A)
                 (A) (A) (A) (A) (A) (A) (A) (A) (A) (A) (A) (A)
                 (A) (A) (A) (A) (A) (A) (A) (A) (A) (A) (A) (A)
                 (A) (A) (A) (A) (A) (A) (A) (A) (A) (A) (A) (A)
                 (A) (A) (A) (A) (A) (A) (A) (A) (A) (A) (A) (A)
                 (A) (A) (A) (A) (A) (A) (A) (A) (A) (A) (A) (A)
                 (A) (A) (A) (A) (A) (A) (A) (A) (A) (A) (A) (A)
                 (A) (A) (A) (A) (A) (A) (A) (A) (A) (A) (A) (A)
                 (A) (A) (A) (A) (A) (A) (A) (A) (A) (A) (A) (A)
                 (A) (A) (A) (A) (A) (A) (A) (A) (A) (A) (A) (A)
                 (A) (A) (A) (A) (A) (A) (A) (A) (A) (A) (A) (A)
                 (A) (A) (A) (A) (A) (A) (A) (A) (A) (A) (A) (A)
                 (A) (A) (A) (A) (A) (A) (A) (A) (A) (A) (A) (A)
                 (A) (A) (A) (A) (A) (A) (A) (A) (A) (A) (A) (A)
                 (A) (A) (A) (A) (A) (A) (A) (A) (A) (A) (A) (A)
                 (A) (A) (A) (A) (A) (A) (A) (A) (A) (A) (A) (A)
                 (A) (A) (A) (A) (A) (A) (A) (A) (A) (A) (A) (A)
                 (A) (A) (A) (A) (A) (A) (A) (A) (A) (A) (A) (A)
                 (A) (A) (A) (A) (A) (A) (A) (A) (A) (A) (A) (A)
                 (A) (A) (A) (A) (A) (A) (A) (A) (A) (A) (A) (A)
                 (A) (A) (A) (A) (A) (A) (A) (A) (A) (A) (A) (A)
                 (A) (A) (A) (A) (A) (A) (A) (A) (A) (A) (A) (A)
                 (A) (A) (A) (A) (A) (A) (A) (A) (A) (A) (A) (A)
                 (A) (A) (A) (A) (A) (A) (A) (A) (A) (A) (A) (A)
                 (A) (A) (A) (A) (A) (A) (A) (A) (A) (A) (A) (A)
                 (A) (A) (A) (A) (A) (A) (A) (A) (A) (A) (A) (A)
                 (A) (A) (A) (A) (A) (A) (A) (A) (A) (A) (A) (A)
                 (A) (A) (A) (A) (A) (A) (A) (A) (A) (A) (A) (A)
                 (A) (A) (A) (A) (A) (A) (A) (A) (A) (A) (A) (A)
                 (A) (A) (A) (A) (A) (A) (A) (A) (A) (A) (A) (A)
                 (A) (A) (A) (A) (A) (A) (A) (A) (A) (A) (A) (A)
                 (A) (A) (A) (A) (A) (A) (A) (A) (A) (A) (A) (A)
                 (A) (A) (A) (A) (A) (A) (A) (A) (A) (A) (A) (A)
                 (A) (A) (A) (A) (A) (A) (A) (A) (A) (A) (A) (A)
                 (A) (A) (A) (A) (A) (A) (A) (A) (A) (A) (A) (A)
                 (A) (A) (A) (A) (A) (A) (A) (A) (A) (A) (A) (A)
                 (A) (A) (A) (A) (A) (A) (A) (A) (A) (A) (A) (A)
                 (A) (A) (A) (A) (A) (A) (A) (A) (A) (A) (A) (A)
                 (A) (A) (A) (A) (A) (A) (A) (A) (A) (A) (A) (A)
                 (A) (A) (A) (A) (A) (A) (A) (A) (A) (A) (A) (A)
                 (A) (A) (A) (A) (A) (A) (A) (A) (A) (A) (A) (A)
                 (A) (A) (A) (A) (A) (A) (A) (A) (A) (A) (A) (A)
                 (A) (A) (A) (A) (A) (A) (A) (A) (A) (A) (A) (A)
                 (A) (A) (A) (A) (A) (A) (A) (A) (A) (A) (A) (A)
                 (A) (A) (A) (A) (A) (A) (A) (A) (A) (A) (A) (A)
                 (A) (A) (A) (A) (A) (A) (A) (A) (A) (A) (A) (A)
                 (A) (A) (A) (A) (A) (A) (A) (A) (A) (A) (A) (A)
                 (A) (A) (A) (A) (A) (A) (A) (A) (A) (A) (A) (A)
                 (A) (A) (A) (A) (A) (A) (A) (A) (A) (A) (A) (A)
                 (A) (A) (A) (A) (A) (A) (A) (A) (A) (A) (A) (A)
                 (A) (A) (A) (A) (A) (A) (A) (A) (A) (A) (A) (A)
                 (A) (A) (A) (A) (A) (A) (A) (A) (A) (A) (A) (A)
                 (A) (A) (A) (A) (A) (A) (A) (A) (A) (A) (A) (A)
                 (A) (A) (A) (A) (A) (A) (A) (A) (A) (A) (A) (A)
                 (A) (A) (A) (A) (A) (A) (A) (A) (A) (A) (A) (A)
                 (A) (A) (A) (A) (A) (A) (A) (A) (A) (A) (A) (A)
                 (A) (A) (A) (A) (A) (A) (A) (A) (A) (A) (A) (A)
                 (A) (A) (A) (A) (A) (A) (A) (A) (A) (A) (A) (A)
                 (A) (A) (A) (A) (A) (A) (A) (A) (A) (A) (A) (A)
                 (A) (A) (A) (A) (A) (A) (A) (A) (A) (A) (A) (A)
                 (A) (A) (A) (A) (A) (A) (A) (A) (A) (A) (A) (A)
                 (A) (A) (A) (A) (A) (A) (A) (A) (A) (A) (A) (A)
                 (A) (A) (A) (A) (A) (A) (A) (A) (A) (A) (A) (A)
                 (A) (A) (A) (A) (A) (A) (A) (A) (A) (A) (A) (A)
                 (A) (A) (A) (A) (A) (A) (A) (A) (A) (A) (A) (A)
                 (A) (A) (A) (A) (A) (A) (A) (A) (A) (A) (A) (A)
                 (A) (A) (A) (A) (A) (A) (A) (A) (A) (A) (A) (A)
                 (A) (A) (A) (A) (A) (A) (A) (A) (A) (A) (A) (A)
                 (A) (A) (A) (A) (A) (A) (A) (A) (A) (A) (A) (A)
                 (A) (A) (A) (A) (A) (A) (A) (A) (A) (A) (A) (A)
                 (A) (A) (A) (A) (A) (A) (A) (A) (A) (A) (A) (A)
                 (A) (A) (A) (A) (A) (A) (A) (A) (A) (A) (A) (A)
                 (A) (A) (A) (A) (A) (A) (A) (A) (A) (A) (A) (A)
                 (A) (A) (A) (A) (A) (A) (A) (A) (A) (A) (A) (A)
                 (A) (A) (A) (A) (A) (A) (A) (A) (A) (A) (A) (A)
                 (A) (A) (A) (A) (A) (A) (A) (A) (A) (A) (A) (A)
                 (A) (A) (A) (A) (A) (A) (A) (A) (A) (A) (A) (A)
                 (A) (A) (A) (A) (A) (A) (A) (A) (A) (A) (A) (A)
                 (A) (A) (A) (A) (A) (A) (A) (A) (A) (A) (A) (A)
                 (A) (A) (A) (A) (A) (A) (A) (A) (A)
 The electronic state is 2-A.
 Alpha  occ. eigenvalues --  -25.18872 -25.18860 -19.67739 -19.67303 -19.67072
 Alpha  occ. eigenvalues --  -19.66974 -19.63309 -19.63065 -15.01312 -15.00762
 Alpha  occ. eigenvalues --  -14.82852 -14.78504 -14.76976 -14.76263 -10.64770
 Alpha  occ. eigenvalues --  -10.64375 -10.62461 -10.61175 -10.59728 -10.59625
 Alpha  occ. eigenvalues --  -10.58735 -10.58524 -10.58234 -10.58131 -10.57610
 Alpha  occ. eigenvalues --  -10.57325 -10.56810 -10.56649 -10.55989 -10.55759
 Alpha  occ. eigenvalues --  -10.55414 -10.54592 -10.54583 -10.54252 -10.54234
 Alpha  occ. eigenvalues --  -10.54219 -10.53459 -10.53252 -10.52924 -10.52538
 Alpha  occ. eigenvalues --  -10.52414 -10.52383  -7.11476  -1.36177  -1.35779
 Alpha  occ. eigenvalues --   -1.30592  -1.27457  -1.18658  -1.17722  -1.17253
 Alpha  occ. eigenvalues --   -1.14168  -1.12608  -1.08517  -1.06537  -1.02354
 Alpha  occ. eigenvalues --   -0.97517  -0.96900  -0.94103  -0.91444  -0.90242
 Alpha  occ. eigenvalues --   -0.88461  -0.87173  -0.86153  -0.85597  -0.84354
 Alpha  occ. eigenvalues --   -0.84093  -0.83381  -0.82816  -0.80761  -0.78921
 Alpha  occ. eigenvalues --   -0.76623  -0.74600  -0.72162  -0.70888  -0.70379
 Alpha  occ. eigenvalues --   -0.69948  -0.68992  -0.68840  -0.68095  -0.67256
 Alpha  occ. eigenvalues --   -0.66777  -0.65328  -0.64749  -0.63809  -0.63294
 Alpha  occ. eigenvalues --   -0.62844  -0.62614  -0.62077  -0.61331  -0.61056
 Alpha  occ. eigenvalues --   -0.60513  -0.59803  -0.58946  -0.58423  -0.57710
 Alpha  occ. eigenvalues --   -0.57209  -0.56771  -0.54921  -0.54236  -0.54093
 Alpha  occ. eigenvalues --   -0.53664  -0.53144  -0.52784  -0.52327  -0.52011
 Alpha  occ. eigenvalues --   -0.51598  -0.51051  -0.50422  -0.50235  -0.49547
 Alpha  occ. eigenvalues --   -0.49264  -0.49051  -0.48769  -0.48498  -0.48104
 Alpha  occ. eigenvalues --   -0.47681  -0.46825  -0.46298  -0.45971  -0.45698
 Alpha  occ. eigenvalues --   -0.45432  -0.45371  -0.45117  -0.44926  -0.44656
 Alpha  occ. eigenvalues --   -0.44236  -0.44122  -0.43702  -0.43148  -0.42516
 Alpha  occ. eigenvalues --   -0.41596  -0.41256  -0.40818  -0.40606  -0.40307
 Alpha  occ. eigenvalues --   -0.40248  -0.39698  -0.39607  -0.39190  -0.39128
 Alpha  occ. eigenvalues --   -0.39066  -0.38946  -0.37911  -0.36771  -0.35580
 Alpha  occ. eigenvalues --   -0.35421  -0.35223  -0.33855  -0.32228  -0.31253
 Alpha  occ. eigenvalues --   -0.30504  -0.29551  -0.28369  -0.25861  -0.18887
 Alpha virt. eigenvalues --   -0.07788  -0.06531  -0.01629   0.01462   0.01698
 Alpha virt. eigenvalues --    0.02079   0.04606   0.06153   0.06890   0.07619
 Alpha virt. eigenvalues --    0.07978   0.08376   0.08726   0.09079   0.09269
 Alpha virt. eigenvalues --    0.09773   0.10220   0.10595   0.10979   0.11121
 Alpha virt. eigenvalues --    0.11198   0.11468   0.11672   0.11954   0.12100
 Alpha virt. eigenvalues --    0.12617   0.13156   0.13613   0.13691   0.14052
 Alpha virt. eigenvalues --    0.14385   0.14497   0.14693   0.15045   0.15296
 Alpha virt. eigenvalues --    0.15348   0.15613   0.15800   0.16591   0.16753
 Alpha virt. eigenvalues --    0.16898   0.17272   0.17752   0.18030   0.18343
 Alpha virt. eigenvalues --    0.18667   0.18726   0.18781   0.19263   0.19635
 Alpha virt. eigenvalues --    0.19697   0.20261   0.20480   0.20945   0.21416
 Alpha virt. eigenvalues --    0.21504   0.21639   0.22230   0.22607   0.22755
 Alpha virt. eigenvalues --    0.23034   0.23116   0.23393   0.23803   0.23937
 Alpha virt. eigenvalues --    0.24180   0.24635   0.24775   0.25141   0.25425
 Alpha virt. eigenvalues --    0.25651   0.25825   0.26039   0.26239   0.26493
 Alpha virt. eigenvalues --    0.26858   0.27113   0.27254   0.27457   0.27582
 Alpha virt. eigenvalues --    0.28142   0.28244   0.28679   0.29017   0.29291
 Alpha virt. eigenvalues --    0.29668   0.29860   0.30026   0.30132   0.30382
 Alpha virt. eigenvalues --    0.30640   0.30952   0.31219   0.31529   0.32124
 Alpha virt. eigenvalues --    0.32541   0.32707   0.33256   0.33636   0.33760
 Alpha virt. eigenvalues --    0.33897   0.34484   0.34629   0.34901   0.35225
 Alpha virt. eigenvalues --    0.35267   0.35505   0.35599   0.35881   0.36154
 Alpha virt. eigenvalues --    0.36588   0.36677   0.36920   0.37040   0.37478
 Alpha virt. eigenvalues --    0.37585   0.37815   0.38029   0.38090   0.38276
 Alpha virt. eigenvalues --    0.38491   0.39023   0.39437   0.39684   0.39817
 Alpha virt. eigenvalues --    0.40124   0.40326   0.40412   0.40979   0.41160
 Alpha virt. eigenvalues --    0.41433   0.41845   0.41967   0.42194   0.42336
 Alpha virt. eigenvalues --    0.42541   0.42670   0.42990   0.43501   0.43644
 Alpha virt. eigenvalues --    0.43938   0.44124   0.44273   0.44419   0.44577
 Alpha virt. eigenvalues --    0.44759   0.44895   0.45224   0.45342   0.45552
 Alpha virt. eigenvalues --    0.45753   0.46012   0.46323   0.46526   0.46854
 Alpha virt. eigenvalues --    0.46955   0.47076   0.47357   0.47434   0.47686
 Alpha virt. eigenvalues --    0.47893   0.48416   0.48608   0.48735   0.48779
 Alpha virt. eigenvalues --    0.49094   0.49438   0.49665   0.49797   0.49920
 Alpha virt. eigenvalues --    0.50211   0.50386   0.50708   0.51080   0.51361
 Alpha virt. eigenvalues --    0.51410   0.51538   0.52015   0.52204   0.52419
 Alpha virt. eigenvalues --    0.52680   0.53432   0.53608   0.53842   0.54092
 Alpha virt. eigenvalues --    0.54391   0.54554   0.54630   0.55027   0.55333
 Alpha virt. eigenvalues --    0.55568   0.55858   0.56132   0.56170   0.56478
 Alpha virt. eigenvalues --    0.56908   0.57016   0.57498   0.58006   0.58124
 Alpha virt. eigenvalues --    0.58559   0.58839   0.59065   0.59450   0.59643
 Alpha virt. eigenvalues --    0.59857   0.60059   0.60369   0.60617   0.60851
 Alpha virt. eigenvalues --    0.61263   0.61653   0.61748   0.61949   0.62541
 Alpha virt. eigenvalues --    0.62770   0.62911   0.63550   0.63942   0.64066
 Alpha virt. eigenvalues --    0.64545   0.64844   0.64893   0.65322   0.65638
 Alpha virt. eigenvalues --    0.65992   0.66151   0.66563   0.66786   0.67409
 Alpha virt. eigenvalues --    0.67851   0.67924   0.68130   0.68354   0.68710
 Alpha virt. eigenvalues --    0.68959   0.69511   0.69806   0.70009   0.70447
 Alpha virt. eigenvalues --    0.70627   0.70812   0.71186   0.71641   0.71817
 Alpha virt. eigenvalues --    0.72054   0.72799   0.72941   0.73197   0.73242
 Alpha virt. eigenvalues --    0.73664   0.73984   0.74179   0.74673   0.75024
 Alpha virt. eigenvalues --    0.75141   0.75465   0.75875   0.76126   0.76627
 Alpha virt. eigenvalues --    0.76864   0.77000   0.77093   0.77832   0.78082
 Alpha virt. eigenvalues --    0.78267   0.78498   0.79159   0.79289   0.79506
 Alpha virt. eigenvalues --    0.79960   0.80257   0.80478   0.80843   0.81078
 Alpha virt. eigenvalues --    0.81475   0.82083   0.82271   0.82587   0.83080
 Alpha virt. eigenvalues --    0.83403   0.83762   0.83980   0.84124   0.84542
 Alpha virt. eigenvalues --    0.84631   0.85206   0.85542   0.86225   0.86651
 Alpha virt. eigenvalues --    0.87290   0.87398   0.87610   0.87952   0.88286
 Alpha virt. eigenvalues --    0.88587   0.88977   0.89322   0.89544   0.90250
 Alpha virt. eigenvalues --    0.90372   0.90807   0.91033   0.91377   0.91612
 Alpha virt. eigenvalues --    0.91866   0.92310   0.92702   0.92726   0.93047
 Alpha virt. eigenvalues --    0.93440   0.93706   0.94665   0.95071   0.95174
 Alpha virt. eigenvalues --    0.95874   0.96253   0.96573   0.96715   0.96971
 Alpha virt. eigenvalues --    0.97314   0.97457   0.97657   0.98227   0.98537
 Alpha virt. eigenvalues --    0.98717   0.99471   0.99622   0.99859   1.00369
 Alpha virt. eigenvalues --    1.00566   1.00956   1.01384   1.01773   1.01922
 Alpha virt. eigenvalues --    1.02520   1.02772   1.02922   1.03462   1.03741
 Alpha virt. eigenvalues --    1.04070   1.04137   1.04598   1.04968   1.05455
 Alpha virt. eigenvalues --    1.05949   1.06111   1.06510   1.06659   1.06986
 Alpha virt. eigenvalues --    1.07307   1.07554   1.08165   1.08572   1.09012
 Alpha virt. eigenvalues --    1.09136   1.09626   1.09772   1.10076   1.10441
 Alpha virt. eigenvalues --    1.10792   1.10911   1.11105   1.11261   1.11846
 Alpha virt. eigenvalues --    1.12030   1.12406   1.12824   1.13103   1.13499
 Alpha virt. eigenvalues --    1.13776   1.14502   1.14687   1.15011   1.15378
 Alpha virt. eigenvalues --    1.15910   1.16057   1.16541   1.16997   1.17156
 Alpha virt. eigenvalues --    1.17546   1.17944   1.18322   1.18859   1.19048
 Alpha virt. eigenvalues --    1.19241   1.19581   1.19833   1.20124   1.20477
 Alpha virt. eigenvalues --    1.20938   1.21098   1.21520   1.22073   1.22631
 Alpha virt. eigenvalues --    1.22790   1.23220   1.23443   1.23646   1.23820
 Alpha virt. eigenvalues --    1.24231   1.24383   1.24914   1.25314   1.25587
 Alpha virt. eigenvalues --    1.25929   1.26154   1.26425   1.26849   1.27142
 Alpha virt. eigenvalues --    1.27420   1.27784   1.28478   1.28858   1.29048
 Alpha virt. eigenvalues --    1.29656   1.30194   1.30645   1.30936   1.31308
 Alpha virt. eigenvalues --    1.31745   1.32347   1.32490   1.32985   1.33368
 Alpha virt. eigenvalues --    1.33840   1.33913   1.34596   1.34735   1.35160
 Alpha virt. eigenvalues --    1.35379   1.35624   1.36196   1.36281   1.36922
 Alpha virt. eigenvalues --    1.37687   1.38236   1.38610   1.38999   1.39632
 Alpha virt. eigenvalues --    1.39894   1.40089   1.40767   1.41408   1.41860
 Alpha virt. eigenvalues --    1.42112   1.42404   1.42617   1.43100   1.43977
 Alpha virt. eigenvalues --    1.44157   1.44520   1.44766   1.44974   1.45055
[...]
     5 O(17)  Bbb    -0.0097     0.705     0.252     0.235  0.0419 -0.3154  0.9480
              Bcc     0.0221    -1.597    -0.570    -0.533  0.2587  0.9199  0.2946
 
              Baa    -0.0011    -0.146    -0.052    -0.049  0.4322  0.2360  0.8704
     6 C(13)  Bbb    -0.0008    -0.111    -0.040    -0.037  0.8847 -0.2981 -0.3585
              Bcc     0.0019     0.257     0.092     0.086  0.1749  0.9249 -0.3376
 
              Baa    -0.0014    -0.185    -0.066    -0.062  0.9680 -0.1944 -0.1586
     7 C(13)  Bbb    -0.0010    -0.128    -0.046    -0.043  0.2312  0.4461  0.8646
              Bcc     0.0023     0.313     0.112     0.104  0.0973  0.8736 -0.4768
 
              Baa    -0.0973   -13.053    -4.658    -4.354 -0.4758  0.8315  0.2867
     8 C(13)  Bbb    -0.0936   -12.562    -4.482    -4.190  0.8606  0.5075 -0.0436
              Bcc     0.1909    25.615     9.140     8.544  0.1818 -0.2259  0.9570
 
              Baa    -0.0228    -3.065    -1.094    -1.022  0.1545 -0.2015  0.9672
     9 C(13)  Bbb     0.0100     1.345     0.480     0.449  0.1366  0.9739  0.1811
              Bcc     0.0128     1.720     0.614     0.574  0.9785 -0.1042 -0.1780
 
              Baa    -0.0960   -12.887    -4.598    -4.299  0.2155  0.9669  0.1363
    10 C(13)  Bbb    -0.0918   -12.314    -4.394    -4.108  0.9435 -0.1702 -0.2842
              Bcc     0.1878    25.201     8.992     8.406  0.2516 -0.1898  0.9490
 
              Baa    -0.0667    -8.954    -3.195    -2.987  0.2069 -0.1940  0.9589
    11 C(13)  Bbb     0.0276     3.698     1.320     1.234  0.9440  0.2971 -0.1436
              Bcc     0.0392     5.255     1.875     1.753 -0.2570  0.9349  0.2446
 
              Baa    -0.0367    -1.416    -0.505    -0.472 -0.4761  0.8211  0.3150
    12 N(14)  Bbb    -0.0282    -1.086    -0.387    -0.362  0.8482  0.5233 -0.0821
              Bcc     0.0649     2.502     0.893     0.835  0.2322 -0.2281  0.9455
 
              Baa    -0.0029    -0.492    -0.175    -0.164  0.1701 -0.2740  0.9466
    13 B(11)  Bbb     0.0006     0.109     0.039     0.036  0.9551  0.2822 -0.0899
              Bcc     0.0022     0.382     0.136     0.128 -0.2425  0.9194  0.3097
 
              Baa    -0.0128    -6.408    -2.287    -2.138  0.1284 -0.3583  0.9247
    14 F(19)  Bbb    -0.0104    -5.203    -1.856    -1.735  0.8548 -0.4328 -0.2864
              Bcc     0.0231    11.611     4.143     3.873  0.5029  0.8272  0.2507
 
              Baa    -0.0124    -6.215    -2.218    -2.073  0.2938  0.2155  0.9312
    15 F(19)  Bbb    -0.0120    -6.025    -2.150    -2.010  0.8404 -0.5224 -0.1443
              Bcc     0.0244    12.240     4.368     4.083  0.4554  0.8250 -0.3346
 
              Baa    -0.1094    -4.220    -1.506    -1.408 -0.4620  0.8447  0.2703
    16 N(14)  Bbb    -0.0980    -3.781    -1.349    -1.261  0.8633  0.4981 -0.0812
              Bcc     0.2075     8.001     2.855     2.669  0.2032 -0.1958  0.9594
 
              Baa    -0.0713    -9.570    -3.415    -3.192 -0.0482  0.9771  0.2073
    17 C(13)  Bbb    -0.0624    -8.378    -2.989    -2.794  0.9775  0.0888 -0.1913
              Bcc     0.1338    17.948     6.404     5.987  0.2053 -0.1934  0.9594
 
              Baa    -0.0068    -0.911    -0.325    -0.304  0.2914 -0.4433  0.8477
    18 C(13)  Bbb    -0.0024    -0.320    -0.114    -0.107  0.6130 -0.5937 -0.5213
              Bcc     0.0092     1.231     0.439     0.411  0.7344  0.6715  0.0987
 
              Baa    -0.1839    -7.094    -2.531    -2.366  0.0801  0.9917  0.1001
    19 N(14)  Bbb    -0.1761    -6.794    -2.424    -2.266  0.9886 -0.0661 -0.1354
              Bcc     0.3601    13.888     4.955     4.632  0.1276 -0.1098  0.9857
 
              Baa    -0.0216    -0.832    -0.297    -0.277  0.0430  0.7673  0.6399
    20 N(14)  Bbb     0.0087     0.336     0.120     0.112 -0.4127 -0.5696  0.7108
              Bcc     0.0128     0.495     0.177     0.165  0.9099 -0.2946  0.2922
 
              Baa    -0.0105    -1.409    -0.503    -0.470 -0.0204 -0.3455  0.9382
    21 C(13)  Bbb    -0.0078    -1.043    -0.372    -0.348  0.8838  0.4324  0.1785
              Bcc     0.0183     2.452     0.875     0.818 -0.4674  0.8329  0.2965
 
              Baa    -0.0022    -0.290    -0.104    -0.097  0.0741 -0.6790  0.7304
    22 C(13)  Bbb    -0.0012    -0.165    -0.059    -0.055  0.9202  0.3288  0.2123
              Bcc     0.0034     0.455     0.162     0.152 -0.3843  0.6564  0.6492
 
              Baa    -0.0026    -0.343    -0.122    -0.114 -0.0462  0.7932  0.6072
    23 C(13)  Bbb     0.0008     0.112     0.040     0.037 -0.4184 -0.5674  0.7093
              Bcc     0.0017     0.231     0.082     0.077  0.9071 -0.2213  0.3581
 
              Baa    -0.0027    -0.364    -0.130    -0.122 -0.4716 -0.5170  0.7143
    24 C(13)  Bbb    -0.0014    -0.193    -0.069    -0.064  0.8805 -0.3204  0.3494
              Bcc     0.0042     0.557     0.199     0.186  0.0482  0.7938  0.6063
 
              Baa    -0.0012    -0.167    -0.060    -0.056 -0.5024 -0.5719  0.6484
    25 C(13)  Bbb    -0.0004    -0.057    -0.020    -0.019  0.7224 -0.6898 -0.0487
              Bcc     0.0017     0.224     0.080     0.075  0.4751  0.4440  0.7597
 
              Baa    -0.0021    -0.281    -0.100    -0.094  0.6703  0.5735 -0.4710
    26 C(13)  Bbb     0.0002     0.026     0.009     0.009  0.3098  0.3604  0.8798
              Bcc     0.0019     0.255     0.091     0.085 -0.6744  0.7356 -0.0639
 
              Baa    -0.0009    -0.035    -0.012    -0.012 -0.4004 -0.5559  0.7285
    27 N(14)  Bbb    -0.0004    -0.014    -0.005    -0.005  0.9087 -0.1385  0.3937
              Bcc     0.0013     0.048     0.017     0.016 -0.1180  0.8196  0.5606
 
              Baa    -0.0034     0.244     0.087     0.081 -0.4161 -0.5792  0.7010
    28 O(17)  Bbb    -0.0028     0.205     0.073     0.068  0.9089 -0.2877  0.3018
              Bcc     0.0062    -0.449    -0.160    -0.150  0.0269  0.7627  0.6461
 
              Baa    -0.0048     0.350     0.125     0.117  0.6313  0.5077 -0.5862
    29 O(17)  Bbb    -0.0046     0.331     0.118     0.110  0.7755 -0.4209  0.4706
              Bcc     0.0094    -0.681    -0.243    -0.227  0.0078  0.7517  0.6594
 
              Baa    -0.0031    -0.120    -0.043    -0.040  0.3854 -0.6226  0.6811
    30 N(14)  Bbb    -0.0018    -0.068    -0.024    -0.023  0.9227  0.2567 -0.2875
              Bcc     0.0049     0.188     0.067     0.063  0.0042  0.7392  0.6734
 
              Baa    -0.0130     0.941     0.336     0.314  0.8823 -0.2905  0.3704
    31 O(17)  Bbb    -0.0130     0.937     0.335     0.313 -0.4705 -0.5200  0.7129
              Bcc     0.0260    -1.878    -0.670    -0.626  0.0145  0.8033  0.5955
 
              Baa    -0.0089     0.643     0.229     0.214  0.5665  0.7935  0.2224
    32 O(17)  Bbb    -0.0016     0.113     0.040     0.038  0.5896 -0.5788  0.5633
              Bcc     0.0104    -0.755    -0.270    -0.252 -0.5757  0.1879  0.7957
 
              Baa    -0.0811   -10.884    -3.884    -3.631  0.1940 -0.2112  0.9580
    33 C(13)  Bbb     0.0384     5.151     1.838     1.718 -0.2366  0.9377  0.2546
              Bcc     0.0427     5.733     2.046     1.912  0.9520  0.2760 -0.1319
 
              Baa    -0.0632    -8.486    -3.028    -2.831  0.3858  0.9094  0.1553
    34 C(13)  Bbb    -0.0626    -8.395    -2.996    -2.800  0.9038 -0.3388 -0.2614
              Bcc     0.1258    16.881     6.024     5.631  0.1851 -0.2412  0.9526
 
              Baa    -0.1085   -14.563    -5.196    -4.858  0.1967 -0.2035  0.9591
    35 C(13)  Bbb     0.0450     6.040     2.155     2.015  0.1362  0.9744  0.1788
              Bcc     0.0635     8.523     3.041     2.843  0.9710 -0.0954 -0.2194
 
              Baa    -0.2461   -33.024   -11.784   -11.016 -0.2003  0.9547  0.2202
    36 C(13)  Bbb    -0.2424   -32.532   -11.608   -10.851  0.9621  0.2341 -0.1399
              Bcc     0.4885    65.556    23.392    21.867  0.1851 -0.1838  0.9654
 
              Baa    -0.0274    -3.674    -1.311    -1.226 -0.3307  0.4323  0.8389
    37 C(13)  Bbb     0.0129     1.731     0.618     0.577 -0.5441  0.6390 -0.5437
              Bcc     0.0145     1.943     0.693     0.648  0.7711  0.6362 -0.0239
 
              Baa    -0.0227    -3.045    -1.086    -1.016  0.0306  0.7191 -0.6942
    38 C(13)  Bbb    -0.0160    -2.147    -0.766    -0.716  0.6631  0.5051  0.5524
              Bcc     0.0387     5.191     1.852     1.732  0.7479 -0.4772 -0.4614
 
              Baa    -0.0150    -2.008    -0.717    -0.670 -0.3733  0.4637  0.8035
    39 C(13)  Bbb     0.0052     0.693     0.247     0.231 -0.4628  0.6576 -0.5945
              Bcc     0.0098     1.315     0.469     0.439  0.8040  0.5938  0.0308
 
              Baa    -0.0205    -2.745    -0.979    -0.916 -0.5593  0.6290 -0.5400
    40 C(13)  Bbb    -0.0173    -2.315    -0.826    -0.772  0.7611  0.6478 -0.0338
              Bcc     0.0377     5.060     1.805     1.688 -0.3286  0.4299  0.8410
 
              Baa    -0.0009    -0.123    -0.044    -0.041  0.4575 -0.5104  0.7282
    41 C(13)  Bbb     0.0002     0.032     0.011     0.011 -0.3414  0.6553  0.6738
              Bcc     0.0007     0.092     0.033     0.031  0.8211  0.5568 -0.1255
 
              Baa    -0.0146    -1.963    -0.700    -0.655 -0.3656  0.4475  0.8161
    42 C(13)  Bbb     0.0048     0.641     0.229     0.214  0.6174 -0.5396  0.5724
              Bcc     0.0098     1.322     0.472     0.441  0.6966  0.7131 -0.0790
 
              Baa    -0.0238    -3.190    -1.138    -1.064  0.7792 -0.1210  0.6150
    43 C(13)  Bbb    -0.0166    -2.225    -0.794    -0.742 -0.5696 -0.5462  0.6142
              Bcc     0.0404     5.415     1.932     1.806 -0.2616  0.8288  0.4945
 
              Baa    -0.0005    -0.280    -0.100    -0.093  0.0191 -0.1457  0.9891
    44 H(1)   Bbb    -0.0004    -0.215    -0.077    -0.072  0.9081 -0.4113 -0.0781
              Bcc     0.0009     0.495     0.177     0.165  0.4182  0.8998  0.1245
 
              Baa    -0.0005    -0.260    -0.093    -0.087 -0.0536 -0.4110  0.9100
    45 H(1)   Bbb    -0.0004    -0.198    -0.071    -0.066  0.9666 -0.2500 -0.0560
              Bcc     0.0009     0.458     0.164     0.153  0.2506  0.8767  0.4107
 
              Baa    -0.0004    -0.210    -0.075    -0.070 -0.0797 -0.3477  0.9342
    46 H(1)   Bbb    -0.0003    -0.136    -0.049    -0.045  0.8735 -0.4758 -0.1025
              Bcc     0.0006     0.346     0.124     0.115  0.4802  0.8079  0.3416
 
              Baa    -0.0012    -0.622    -0.222    -0.208  0.0623 -0.5378  0.8408
    47 H(1)   Bbb    -0.0000    -0.007    -0.003    -0.002  0.6741 -0.5985 -0.4328
              Bcc     0.0012     0.630     0.225     0.210  0.7360  0.5937  0.3253
 
              Baa    -0.0006    -0.319    -0.114    -0.106 -0.3403 -0.6060  0.7190
    48 H(1)   Bbb    -0.0006    -0.299    -0.107    -0.100  0.7569 -0.6303 -0.1729
              Bcc     0.0012     0.618     0.221     0.206  0.5580  0.4854  0.6731
 
              Baa    -0.0022    -1.172    -0.418    -0.391  0.1144  0.0505  0.9922
    49 H(1)   Bbb    -0.0016    -0.829    -0.296    -0.277 -0.6153  0.7877  0.0308
              Bcc     0.0038     2.001     0.714     0.668  0.7800  0.6140 -0.1212
 
              Baa    -0.0006    -0.329    -0.117    -0.110  0.9971  0.0217  0.0729
    50 H(1)   Bbb    -0.0006    -0.322    -0.115    -0.107 -0.0761  0.2868  0.9550
              Bcc     0.0012     0.651     0.232     0.217  0.0002  0.9577 -0.2877
 
              Baa    -0.0008    -0.431    -0.154    -0.144  0.4676  0.1240  0.8752
    51 H(1)   Bbb    -0.0005    -0.285    -0.102    -0.095  0.8155 -0.4425 -0.3730
              Bcc     0.0013     0.716     0.255     0.239  0.3411  0.8881 -0.3081
 
              Baa    -0.0006    -0.326    -0.116    -0.109  0.8378  0.3548  0.4151
    52 H(1)   Bbb    -0.0005    -0.270    -0.096    -0.090 -0.5453  0.5837  0.6016
              Bcc     0.0011     0.596     0.213     0.199  0.0288  0.7304 -0.6825
 
              Baa    -0.0016    -0.857    -0.306    -0.286  0.7014  0.4793  0.5276
    53 H(1)   Bbb    -0.0009    -0.474    -0.169    -0.158  0.6872 -0.6513 -0.3218
              Bcc     0.0025     1.331     0.475     0.444 -0.1894 -0.5883  0.7862
 
              Baa    -0.0011    -0.608    -0.217    -0.203  0.2506  0.7071  0.6612
    54 H(1)   Bbb    -0.0010    -0.541    -0.193    -0.181  0.9377 -0.0073 -0.3475
              Bcc     0.0022     1.149     0.410     0.383 -0.2408  0.7071 -0.6649
 
              Baa    -0.0027    -1.449    -0.517    -0.483  0.2139 -0.2476  0.9450
    55 H(1)   Bbb    -0.0004    -0.234    -0.083    -0.078  0.3548  0.9210  0.1610
              Bcc     0.0032     1.683     0.601     0.561  0.9101 -0.3008 -0.2849
 
              Baa    -0.0116    -6.212    -2.217    -2.072 -0.2662  0.9206  0.2856
    56 H(1)   Bbb    -0.0028    -1.506    -0.537    -0.502  0.2807 -0.2094  0.9367
              Bcc     0.0145     7.718     2.754     2.574  0.9221  0.3295 -0.2027
 
              Baa    -0.0026    -1.371    -0.489    -0.457  0.3897  0.8775  0.2794
    57 H(1)   Bbb    -0.0021    -1.119    -0.399    -0.373  0.1041 -0.3434  0.9334
              Bcc     0.0047     2.490     0.889     0.831  0.9150 -0.3347 -0.2252
 
              Baa    -0.0028    -1.478    -0.527    -0.493  0.2616  0.0567  0.9635
    58 H(1)   Bbb    -0.0013    -0.714    -0.255    -0.238 -0.3578  0.9328  0.0423
              Bcc     0.0041     2.192     0.782     0.731  0.8964  0.3558 -0.2644
 
              Baa    -0.0004    -0.200    -0.071    -0.067  0.0373  0.7796  0.6252
    59 H(1)   Bbb    -0.0001    -0.029    -0.010    -0.010 -0.4730 -0.5373  0.6983
              Bcc     0.0004     0.229     0.082     0.076  0.8803 -0.3218  0.3487
 
              Baa    -0.0005    -0.256    -0.091    -0.086 -0.0900  0.7426  0.6637
    60 H(1)   Bbb    -0.0003    -0.150    -0.053    -0.050  0.6826  0.5312 -0.5019
              Bcc     0.0008     0.406     0.145     0.135  0.7252 -0.4079  0.5547
 
              Baa    -0.0019    -1.035    -0.369    -0.345 -0.4169  0.4330  0.7992
    61 H(1)   Bbb    -0.0005    -0.251    -0.090    -0.084  0.5766  0.8057 -0.1358
              Bcc     0.0024     1.286     0.459     0.429  0.7027 -0.4042  0.5856
 
              Baa    -0.0032    -1.711    -0.611    -0.571 -0.6572  0.6956  0.2903
    62 H(1)   Bbb    -0.0023    -1.220    -0.435    -0.407  0.2005 -0.2100  0.9569
              Bcc     0.0055     2.931     1.046     0.978  0.7266  0.6871 -0.0014
 
              Baa    -0.0064    -3.438    -1.227    -1.147  0.8206 -0.4757 -0.3169
    63 H(1)   Bbb    -0.0025    -1.311    -0.468    -0.437  0.1982 -0.2831  0.9384
              Bcc     0.0089     4.750     1.695     1.584  0.5361  0.8328  0.1380
 
              Baa    -0.0032    -1.707    -0.609    -0.569 -0.4418  0.1975  0.8751
    64 H(1)   Bbb    -0.0001    -0.039    -0.014    -0.013  0.3927  0.9196 -0.0093
              Bcc     0.0033     1.746     0.623     0.582  0.8066 -0.3395  0.4838
 
              Baa    -0.0012    -0.624    -0.223    -0.208 -0.3873  0.4589  0.7996
    65 H(1)   Bbb    -0.0005    -0.241    -0.086    -0.080 -0.4598  0.6556 -0.5990
              Bcc     0.0016     0.865     0.309     0.289  0.7991  0.5997  0.0429
 
              Baa    -0.0006    -0.338    -0.120    -0.113 -0.5098  0.3564  0.7830
    66 H(1)   Bbb    -0.0005    -0.283    -0.101    -0.094 -0.3326  0.7578 -0.5614
              Bcc     0.0012     0.620     0.221     0.207  0.7934  0.5466  0.2677
 
              Baa    -0.0006    -0.317    -0.113    -0.106  0.7009 -0.5363 -0.4702
    67 H(1)   Bbb    -0.0006    -0.299    -0.107    -0.100  0.4674 -0.1525  0.8708
              Bcc     0.0012     0.616     0.220     0.205  0.5387  0.8301 -0.1438
 
              Baa    -0.0007    -0.397    -0.142    -0.132  0.4260 -0.4537  0.7828
    68 H(1)   Bbb    -0.0004    -0.237    -0.085    -0.079 -0.2150  0.7896  0.5747
              Bcc     0.0012     0.634     0.226     0.211  0.8788  0.4131 -0.2388
 
              Baa    -0.0012    -0.626    -0.223    -0.209 -0.4008  0.4652  0.7893
    69 H(1)   Bbb    -0.0003    -0.157    -0.056    -0.053  0.6164 -0.5004  0.6080
              Bcc     0.0015     0.784     0.280     0.261  0.6778  0.7302 -0.0861
 
              Baa    -0.0034    -1.838    -0.656    -0.613 -0.1252  0.4264  0.8958
    70 H(1)   Bbb    -0.0007    -0.350    -0.125    -0.117  0.9453  0.3253 -0.0228
              Bcc     0.0041     2.188     0.781     0.730 -0.3011  0.8440 -0.4439
 

 ---------------------------------------------------------------------------------

 No NMR shielding tensors so no spin-rotation constants.
 Leave Link  601 at Thu Nov  6 06:31:37 2025, MaxMem= 30870077440 cpu:             166.0 elap:               2.9
 (Enter /public/software/gauss/g16/l9999.exe)
 1\1\GINC-CU015\SP\UM062X\def2TZVPP\C28H27B1F2N6O6(1-,2)\BAIDING\06-Nov
 -2025\0\\#p M062X/DEF2TZVPP scrf=(solvent=water) em=GD3\\Energy calcul
 ation for M100032886_reduced\\-1,2\C,0,0.374538,5.674469,-2.128803\C,0
 ,0.438048,4.163359,-2.297352\O,0,1.738669,3.594572,-2.049248\C,0,2.110
 473,3.482447,-0.687909\O,0,2.817619,4.663275,-0.31104\C,0,2.484492,5.1
 81742,0.988255\C,0,2.949503,4.307358,2.145801\C,0,2.999457,2.277061,-0
 .555448\C,0,4.3629,2.176276,-0.832906\C,0,4.729273,0.83463,-0.645351\C
 ,0,3.571534,0.136482,-0.237393\N,0,2.517834,1.04099,-0.198911\B,0,1.06
 0067,0.722462,0.20654\F,0,0.192228,1.118843,-0.82663\F,0,0.743316,1.44
 4807,1.378954\N,0,0.967927,-0.802561,0.459772\C,0,-0.146163,-1.53905,0
 .85601\C,0,-1.490408,-1.129868,1.060023\N,0,-1.963146,0.088891,0.97136
 1\N,0,-3.334612,0.193476,1.190329\C,0,-4.32961,-0.39438,0.506665\C,0,-
 5.722264,-0.151385,0.814879\C,0,-6.740648,-0.783699,0.102348\C,0,-6.42
 6524,-1.641108,-0.93408\C,0,-5.077527,-1.876913,-1.294366\C,0,-4.07005
 2,-1.277981,-0.592155\N,0,-7.483928,-2.281969,-1.659689\O,0,-7.181417,
 -3.05378,-2.585872\O,0,-8.663165,-2.049282,-1.343306\N,0,-6.136222,0.7
 33681,1.858989\O,0,-7.342566,0.831967,2.136744\O,0,-5.271774,1.396838,
 2.477153\C,0,0.257337,-2.880251,1.057326\C,0,1.611434,-2.96699,0.79609
 6\C,0,2.053497,-1.66991,0.413663\C,0,3.359659,-1.236767,0.070157\C,0,4
 .489317,-2.193726,0.029164\C,0,5.69119,-1.928613,0.715098\C,0,6.756721
 ,-2.824376,0.674477\C,0,6.675103,-4.02213,-0.05192\C,0,7.842491,-4.975
 502,-0.110769\C,0,5.480469,-4.288767,-0.7339\C,0,4.409866,-3.395732,-0
 .697904\H,0,0.504272,5.976829,-1.086079\H,0,1.145478,6.164428,-2.73200
 4\H,0,-0.603522,6.035764,-2.465416\H,0,-0.297294,3.662544,-1.655321\H,
 0,0.21399,3.892799,-3.33375\H,0,1.21532,3.381925,-0.063839\H,0,2.97264
 1,6.159836,1.03072\H,0,1.399241,5.346292,1.047483\H,0,2.75366,4.824519
 ,3.091602\H,0,2.417115,3.351897,2.168644\H,0,4.023961,4.109175,2.07939
 2\H,0,5.002563,2.992743,-1.138477\H,0,5.708676,0.401288,-0.78595\H,0,-
 2.152303,-1.951777,1.341802\H,0,-3.611131,0.951212,1.809355\H,0,-7.770
 313,-0.590517,0.366833\H,0,-4.850985,-2.523336,-2.132443\H,0,-3.044938
 ,-1.45495,-0.88617\H,0,-0.405517,-3.677317,1.368193\H,0,2.236558,-3.84
 3977,0.868806\H,0,5.779297,-1.020036,1.302171\H,0,7.665923,-2.594606,1
 .224822\H,0,8.317597,-5.086004,0.869457\H,0,7.531681,-5.965757,-0.4551
 85\H,0,8.614552,-4.613479,-0.801327\H,0,5.388219,-5.206567,-1.309137\H
 ,0,3.506487,-3.62442,-1.254464\\Version=ES64L-G16RevA.03\State=2-A\HF=
 -2087.74072\S2=0.785877\S2-1=0.\S2A=0.750806\RMSD=3.795e-09\Dipole=2.6
 971339,-1.8294754,0.6012529\Quadrupole=-54.0382786,35.0972513,18.94102
 73,-25.4697126,4.4717018,-3.5840237\PG=C01 [X(C28H27B1F2N6O6)]\\@


 POCKETA-POCKETA
 BARON VON RICHTOFEN
 SLAUGHTERED THE ALLIES WITH
 HARDLY A CARE.
 KILLED EIGHTY-ONE WITH HIS
 BLOOD-COLORED TRIPLANE, THEN
 UN-AEROBATICALLY
 PLUNGED FROM THE AIR.
   -- TONY HOFFMAN
 Job cpu time:       1 days  8 hours 32 minutes 19.0 seconds.
 Elapsed time:       0 days  0 hours 30 minutes 53.1 seconds.
 File lengths (MBytes):  RWF=   3124 Int=      0 D2E=      0 Chk=    204 Scr=      1
 Normal termination of Gaussian 16 at Thu Nov  6 06:31:38 2025.
