 Entering Gaussian System, Link 0=g16
 Input=M100479042_reduced_sp.gjf
 Output=M100479042_reduced_sp.log
 Initial command:
 /public/software/gauss/g16/l1.exe "/public/home/baiding/1101_v2_sp/tmp_M100479042_reduced_sp_1575143/Gau-1464625.inp" -scrdir="/public/home/baiding/1101_v2_sp/tmp_M100479042_reduced_sp_1575143/"
 Entering Link 1 = /public/software/gauss/g16/l1.exe PID=   1464626.
  
 Copyright (c) 1988,1990,1992,1993,1995,1998,2003,2009,2016,
            Gaussian, Inc.  All Rights Reserved.
  
 This is part of the Gaussian(R) 16 program.  It is based on
 the Gaussian(R) 09 system (copyright 2009, Gaussian, Inc.),
 the Gaussian(R) 03 system (copyright 2003, Gaussian, Inc.),
 the Gaussian(R) 98 system (copyright 1998, Gaussian, Inc.),
 the Gaussian(R) 94 system (copyright 1995, Gaussian, Inc.),
 the Gaussian 92(TM) system (copyright 1992, Gaussian, Inc.),
 the Gaussian 90(TM) system (copyright 1990, Gaussian, Inc.),
 the Gaussian 88(TM) system (copyright 1988, Gaussian, Inc.),
 the Gaussian 86(TM) system (copyright 1986, Carnegie Mellon
 University), and the Gaussian 82(TM) system (copyright 1983,
 Carnegie Mellon University). Gaussian is a federally registered
 trademark of Gaussian, Inc.
  
 This software contains proprietary and confidential information,
 including trade secrets, belonging to Gaussian, Inc.
  
 This software is provided under written license and may be
 used, copied, transmitted, or stored only in accord with that
 written license.
  
 The following legend is applicable only to US Government
 contracts under FAR:
  
                    RESTRICTED RIGHTS LEGEND
  
 Use, reproduction and disclosure by the US Government is
 subject to restrictions as set forth in subparagraphs (a)
 and (c) of the Commercial Computer Software - Restricted
 Rights clause in FAR 52.227-19.
  
 Gaussian, Inc.
 340 Quinnipiac St., Bldg. 40, Wallingford CT 06492
  
  
 ---------------------------------------------------------------
 Warning -- This program may not be used in any manner that
 competes with the business of Gaussian, Inc. or will provide
 assistance to any competitor of Gaussian, Inc.  The licensee
 of this program is prohibited from giving any competitor of
 Gaussian, Inc. access to this program.  By using this program,
 the user acknowledges that Gaussian, Inc. is engaged in the
 business of creating and licensing software in the field of
 computational chemistry and represents and warrants to the
 licensee that it is not a competitor of Gaussian, Inc. and that
 it will not use this program in any manner prohibited above.
 ---------------------------------------------------------------
  

 Cite this work as:
 Gaussian 16, Revision A.03,
 M. J. Frisch, G. W. Trucks, H. B. Schlegel, G. E. Scuseria, 
 M. A. Robb, J. R. Cheeseman, G. Scalmani, V. Barone, 
 G. A. Petersson, H. Nakatsuji, X. Li, M. Caricato, A. V. Marenich, 
 J. Bloino, B. G. Janesko, R. Gomperts, B. Mennucci, H. P. Hratchian, 
 J. V. Ortiz, A. F. Izmaylov, J. L. Sonnenberg, D. Williams-Young, 
 F. Ding, F. Lipparini, F. Egidi, J. Goings, B. Peng, A. Petrone, 
 T. Henderson, D. Ranasinghe, V. G. Zakrzewski, J. Gao, N. Rega, 
 G. Zheng, W. Liang, M. Hada, M. Ehara, K. Toyota, R. Fukuda, 
 J. Hasegawa, M. Ishida, T. Nakajima, Y. Honda, O. Kitao, H. Nakai, 
 T. Vreven, K. Throssell, J. A. Montgomery, Jr., J. E. Peralta, 
 F. Ogliaro, M. J. Bearpark, J. J. Heyd, E. N. Brothers, K. N. Kudin, 
 V. N. Staroverov, T. A. Keith, R. Kobayashi, J. Normand, 
 K. Raghavachari, A. P. Rendell, J. C. Burant, S. S. Iyengar, 
 J. Tomasi, M. Cossi, J. M. Millam, M. Klene, C. Adamo, R. Cammi, 
 J. W. Ochterski, R. L. Martin, K. Morokuma, O. Farkas, 
 J. B. Foresman, and D. J. Fox, Gaussian, Inc., Wallingford CT, 2016.
 
 ******************************************
 Gaussian 16:  ES64L-G16RevA.03 25-Dec-2016
                 8-Nov-2025 
 ******************************************
 %nprocshared=64
 Will use up to   64 processors via shared memory.
 %mem=230GB
 %chk=M100479042_reduced_sp.chk
 ----------------------------------------------
 #p M062X/DEF2TZVPP scrf=(solvent=water) em=GD3
 ----------------------------------------------
 1/38=1,172=1/1;
 2/12=2,17=6,18=5,40=1/2;
 3/5=44,7=202,11=2,25=1,30=1,70=2201,72=1,74=-55,124=31/1,2,3;
 4//1;
 5/5=2,38=5,53=1/2;
 6/7=2,8=2,9=2,10=2,28=1/1;
 99/5=1,9=1/99;
 Leave Link    1 at Sat Nov  8 05:25:17 2025, MaxMem= 30870077440 cpu:              18.0 elap:               0.3
 (Enter /public/software/gauss/g16/l101.exe)
 -----------------------------------------
 Energy calculation for M100479042_reduced
 -----------------------------------------
 Symbolic Z-matrix:
 Charge = -1 Multiplicity = 2
 F                    -0.42596   0.73061   1.27862 
 B                    -1.02991   0.41477   0.05318 
 F                    -0.34759   1.08741  -0.97638 
 N                    -1.06526  -1.11337  -0.18104 
 C                    -2.22843  -1.89139  -0.1721 
 C                    -1.86211  -3.24106  -0.37306 
 C                    -0.4785   -3.28197  -0.47731 
 C                     0.01925  -1.96779  -0.35483 
 C                     1.42963  -1.6833   -0.38784 
 C                     2.11549  -0.5089   -0.35292 
 C                     3.56929  -0.3705   -0.36597 
 C                     4.12528   0.92317  -0.3762 
 C                     5.50237   1.14392  -0.38997 
 C                     6.37105   0.04767  -0.3905 
 O                     7.73938   0.13873  -0.40759 
 C                     8.34073   1.43693  -0.34023 
 C                     9.84167   1.23864  -0.28422 
 N                     10.28999   0.59633   0.97719 
 N                     10.15927  -0.62835   1.03623 
 N                     10.11187  -1.75564   1.21968 
 C                     5.8454   -1.25502  -0.37889 
 C                     4.47472  -1.45762  -0.3663 
 N                    -2.4994    0.91144   0.04216 
 C                    -3.58598   0.10336   0.04834 
 N                    -4.73495   0.82337   0.10169 
 C                    -4.374     2.16535   0.1295 
 C                    -2.96292   2.22243   0.08948 
 C                    -2.28575   3.44372   0.09772 
 C                    -3.06191   4.60092   0.1563 
 C                    -4.46753   4.54326   0.20594 
 C                    -5.14757   3.32599   0.19492 
 B                    -6.14395   0.19196  -0.07134 
 F                    -7.03672   0.75492   0.84811 
 F                    -6.61749   0.43588  -1.37115 
 C                    -3.51776  -1.31497   0.00319 
 C                    -4.75975  -2.02467   0.17075 
 N                    -5.95915  -1.31309   0.18843 
 C                    -6.97999  -2.19562   0.41648 
 C                    -6.46305  -3.47604   0.5518 
 C                    -5.06331  -3.37631   0.40268 
 H                    -2.54343  -4.07234  -0.46319 
 H                     0.14019  -4.15514  -0.63763 
 H                     2.0066   -2.60363  -0.45428 
 H                     1.57318   0.42787  -0.33076 
 H                     3.45882   1.78159  -0.37519 
 H                     5.88079   2.15883  -0.40166 
 H                     8.08975   2.02399  -1.23237 
 H                     7.98701   1.97346   0.54739 
 H                     10.18198   0.66176  -1.14884 
 H                     10.3241   2.21544  -0.30869 
 H                     6.53257  -2.09543  -0.37494 
 H                     4.10365  -2.47747  -0.35099 
 H                    -1.20375   3.48768   0.05429 
 H                    -2.56999   5.56856   0.16408 
 H                    -5.03521   5.46721   0.25528 
 H                    -6.22928   3.27677   0.24204 
 H                    -8.00324  -1.85143   0.47031 
 H                    -7.0317   -4.3742    0.75226 
 H                    -4.35243  -4.18253   0.50077 
 
 ITRead=  0  0  0  0  0  0  0  0  0  0  0  0  0  0  0  0  0  0  0  0
 ITRead=  0  0  0  0  0  0  0  0  0  0  0  0  0  0  0  0  0  0  0  0
 ITRead=  0  0  0  0  0  0  0  0  0  0  0  0  0  0  0  0  0  0  0
 MicOpt= -1 -1 -1 -1 -1 -1 -1 -1 -1 -1 -1 -1 -1 -1 -1 -1 -1 -1 -1 -1
 MicOpt= -1 -1 -1 -1 -1 -1 -1 -1 -1 -1 -1 -1 -1 -1 -1 -1 -1 -1 -1 -1
 MicOpt= -1 -1 -1 -1 -1 -1 -1 -1 -1 -1 -1 -1 -1 -1 -1 -1 -1 -1 -1
 NAtoms=     59 NQM=       59 NQMF=       0 NMMI=      0 NMMIF=      0
                NMic=       0 NMicF=      0.
                    Isotopes and Nuclear Properties:
 (Nuclear quadrupole moments (NQMom) in fm**2, nuclear magnetic moments (NMagM)
  in nuclear magnetons)

  Atom         1           2           3           4           5           6           7           8           9          10
 IAtWgt=          19          11          19          14          12          12          12          12          12          12
 AtmWgt=  18.9984033  11.0093053  18.9984033  14.0030740  12.0000000  12.0000000  12.0000000  12.0000000  12.0000000  12.0000000
 NucSpn=           1           3           1           2           0           0           0           0           0           0
 AtZEff=  -0.0000000  -0.0000000  -0.0000000  -0.0000000  -0.0000000  -0.0000000  -0.0000000  -0.0000000  -0.0000000  -0.0000000
 NQMom=    0.0000000   4.0590000   0.0000000   2.0440000   0.0000000   0.0000000   0.0000000   0.0000000   0.0000000   0.0000000
 NMagM=    2.6288670   2.6886370   2.6288670   0.4037610   0.0000000   0.0000000   0.0000000   0.0000000   0.0000000   0.0000000
 AtZNuc=   9.0000000   5.0000000   9.0000000   7.0000000   6.0000000   6.0000000   6.0000000   6.0000000   6.0000000   6.0000000

  Atom        11          12          13          14          15          16          17          18          19          20
 IAtWgt=          12          12          12          12          16          12          12          14          14          14
 AtmWgt=  12.0000000  12.0000000  12.0000000  12.0000000  15.9949146  12.0000000  12.0000000  14.0030740  14.0030740  14.0030740
 NucSpn=           0           0           0           0           0           0           0           2           2           2
 AtZEff=  -0.0000000  -0.0000000  -0.0000000  -0.0000000  -0.0000000  -0.0000000  -0.0000000  -0.0000000  -0.0000000  -0.0000000
 NQMom=    0.0000000   0.0000000   0.0000000   0.0000000   0.0000000   0.0000000   0.0000000   2.0440000   2.0440000   2.0440000
 NMagM=    0.0000000   0.0000000   0.0000000   0.0000000   0.0000000   0.0000000   0.0000000   0.4037610   0.4037610   0.4037610
 AtZNuc=   6.0000000   6.0000000   6.0000000   6.0000000   8.0000000   6.0000000   6.0000000   7.0000000   7.0000000   7.0000000

  Atom        21          22          23          24          25          26          27          28          29          30
 IAtWgt=          12          12          14          12          14          12          12          12          12          12
 AtmWgt=  12.0000000  12.0000000  14.0030740  12.0000000  14.0030740  12.0000000  12.0000000  12.0000000  12.0000000  12.0000000
 NucSpn=           0           0           2           0           2           0           0           0           0           0
 AtZEff=  -0.0000000  -0.0000000  -0.0000000  -0.0000000  -0.0000000  -0.0000000  -0.0000000  -0.0000000  -0.0000000  -0.0000000
 NQMom=    0.0000000   0.0000000   2.0440000   0.0000000   2.0440000   0.0000000   0.0000000   0.0000000   0.0000000   0.0000000
 NMagM=    0.0000000   0.0000000   0.4037610   0.0000000   0.4037610   0.0000000   0.0000000   0.0000000   0.0000000   0.0000000
 AtZNuc=   6.0000000   6.0000000   7.0000000   6.0000000   7.0000000   6.0000000   6.0000000   6.0000000   6.0000000   6.0000000

  Atom        31          32          33          34          35          36          37          38          39          40
 IAtWgt=          12          11          19          19          12          12          14          12          12          12
 AtmWgt=  12.0000000  11.0093053  18.9984033  18.9984033  12.0000000  12.0000000  14.0030740  12.0000000  12.0000000  12.0000000
 NucSpn=           0           3           1           1           0           0           2           0           0           0
 AtZEff=  -0.0000000  -0.0000000  -0.0000000  -0.0000000  -0.0000000  -0.0000000  -0.0000000  -0.0000000  -0.0000000  -0.0000000
 NQMom=    0.0000000   4.0590000   0.0000000   0.0000000   0.0000000   0.0000000   2.0440000   0.0000000   0.0000000   0.0000000
 NMagM=    0.0000000   2.6886370   2.6288670   2.6288670   0.0000000   0.0000000   0.4037610   0.0000000   0.0000000   0.0000000
 AtZNuc=   6.0000000   5.0000000   9.0000000   9.0000000   6.0000000   6.0000000   7.0000000   6.0000000   6.0000000   6.0000000

  Atom        41          42          43          44          45          46          47          48          49          50
 IAtWgt=           1           1           1           1           1           1           1           1           1           1
 AtmWgt=   1.0078250   1.0078250   1.0078250   1.0078250   1.0078250   1.0078250   1.0078250   1.0078250   1.0078250   1.0078250
 NucSpn=           1           1           1           1           1           1           1           1           1           1
 AtZEff=  -0.0000000  -0.0000000  -0.0000000  -0.0000000  -0.0000000  -0.0000000  -0.0000000  -0.0000000  -0.0000000  -0.0000000
 NQMom=    0.0000000   0.0000000   0.0000000   0.0000000   0.0000000   0.0000000   0.0000000   0.0000000   0.0000000   0.0000000
 NMagM=    2.7928460   2.7928460   2.7928460   2.7928460   2.7928460   2.7928460   2.7928460   2.7928460   2.7928460   2.7928460
 AtZNuc=   1.0000000   1.0000000   1.0000000   1.0000000   1.0000000   1.0000000   1.0000000   1.0000000   1.0000000   1.0000000

  Atom        51          52          53          54          55          56          57          58          59
 IAtWgt=           1           1           1           1           1           1           1           1           1
 AtmWgt=   1.0078250   1.0078250   1.0078250   1.0078250   1.0078250   1.0078250   1.0078250   1.0078250   1.0078250
 NucSpn=           1           1           1           1           1           1           1           1           1
 AtZEff=  -0.0000000  -0.0000000  -0.0000000  -0.0000000  -0.0000000  -0.0000000  -0.0000000  -0.0000000  -0.0000000
 NQMom=    0.0000000   0.0000000   0.0000000   0.0000000   0.0000000   0.0000000   0.0000000   0.0000000   0.0000000
 NMagM=    2.7928460   2.7928460   2.7928460   2.7928460   2.7928460   2.7928460   2.7928460   2.7928460   2.7928460
 AtZNuc=   1.0000000   1.0000000   1.0000000   1.0000000   1.0000000   1.0000000   1.0000000   1.0000000   1.0000000
 Leave Link  101 at Sat Nov  8 05:25:17 2025, MaxMem= 30870077440 cpu:               3.7 elap:               0.1
 (Enter /public/software/gauss/g16/l202.exe)
 Stoichiometry    C26H19B2F4N7O(1-,2)
 Framework group  C1[X(C26H19B2F4N7O)]
 Deg. of freedom   171
 Full point group                 C1      NOp   1
 Largest Abelian subgroup         C1      NOp   1
 Largest concise Abelian subgroup C1      NOp   1
                         Standard orientation:                         
 ---------------------------------------------------------------------
 Center     Atomic      Atomic             Coordinates (Angstroms)
 Number     Number       Type             X           Y           Z
 ---------------------------------------------------------------------
      1          9           0       -0.425957    0.730610    1.278617
      2          5           0       -1.029912    0.414768    0.053176
      3          9           0       -0.347593    1.087406   -0.976378
      4          7           0       -1.065264   -1.113365   -0.181041
      5          6           0       -2.228428   -1.891389   -0.172103
      6          6           0       -1.862107   -3.241057   -0.373061
      7          6           0       -0.478496   -3.281972   -0.477308
      8          6           0        0.019252   -1.967794   -0.354831
      9          6           0        1.429633   -1.683303   -0.387836
     10          6           0        2.115489   -0.508903   -0.352924
     11          6           0        3.569289   -0.370496   -0.365974
     12          6           0        4.125284    0.923170   -0.376196
     13          6           0        5.502365    1.143922   -0.389970
     14          6           0        6.371050    0.047670   -0.390501
     15          8           0        7.739377    0.138733   -0.407590
     16          6           0        8.340734    1.436932   -0.340229
     17          6           0        9.841669    1.238643   -0.284220
     18          7           0       10.289993    0.596332    0.977191
     19          7           0       10.159273   -0.628345    1.036229
     20          7           0       10.111868   -1.755642    1.219684
     21          6           0        5.845403   -1.255021   -0.378888
     22          6           0        4.474720   -1.457620   -0.366300
     23          7           0       -2.499400    0.911444    0.042155
     24          6           0       -3.585978    0.103361    0.048342
     25          7           0       -4.734946    0.823373    0.101689
     26          6           0       -4.373999    2.165355    0.129496
     27          6           0       -2.962921    2.222433    0.089479
     28          6           0       -2.285753    3.443719    0.097717
     29          6           0       -3.061915    4.600923    0.156299
     30          6           0       -4.467533    4.543265    0.205939
     31          6           0       -5.147573    3.325985    0.194921
     32          5           0       -6.143951    0.191957   -0.071335
     33          9           0       -7.036722    0.754915    0.848109
     34          9           0       -6.617489    0.435875   -1.371149
     35          6           0       -3.517764   -1.314965    0.003185
     36          6           0       -4.759745   -2.024670    0.170745
     37          7           0       -5.959153   -1.313091    0.188430
     38          6           0       -6.979987   -2.195617    0.416484
     39          6           0       -6.463052   -3.476043    0.551802
     40          6           0       -5.063308   -3.376309    0.402683
     41          1           0       -2.543432   -4.072344   -0.463187
     42          1           0        0.140187   -4.155143   -0.637631
     43          1           0        2.006596   -2.603625   -0.454284
     44          1           0        1.573182    0.427870   -0.330763
     45          1           0        3.458823    1.781591   -0.375186
     46          1           0        5.880792    2.158831   -0.401655
     47          1           0        8.089746    2.023986   -1.232374
     48          1           0        7.987007    1.973458    0.547388
     49          1           0       10.181984    0.661759   -1.148844
     50          1           0       10.324099    2.215443   -0.308692
     51          1           0        6.532566   -2.095429   -0.374935
     52          1           0        4.103652   -2.477469   -0.350988
     53          1           0       -1.203753    3.487683    0.054285
     54          1           0       -2.569993    5.568559    0.164083
     55          1           0       -5.035213    5.467208    0.255279
     56          1           0       -6.229283    3.276770    0.242043
     57          1           0       -8.003238   -1.851427    0.470312
     58          1           0       -7.031705   -4.374198    0.752256
     59          1           0       -4.352432   -4.182526    0.500769
 ---------------------------------------------------------------------
 Rotational constants (GHZ):           0.2148751           0.0308805           0.0275580
 Leave Link  202 at Sat Nov  8 05:25:17 2025, MaxMem= 30870077440 cpu:               0.2 elap:               0.0
 (Enter /public/software/gauss/g16/l301.exe)
 Standard basis: def2TZVPP (5D, 7F)
 Ernie: Thresh=  0.10000D-02 Tol=  0.10000D-05 Strict=F.
 There are  1725 symmetry adapted cartesian basis functions of A   symmetry.
 There are  1506 symmetry adapted basis functions of A   symmetry.
  1506 basis functions,  2363 primitive gaussians,  1725 cartesian basis functions
   140 alpha electrons      139 beta electrons
       nuclear repulsion energy      4142.9773757986 Hartrees.
 IExCor= 4336 DFT=T Ex+Corr=M062X ExCW=0 ScaHFX=  0.540000
 ScaDFX=  1.000000  1.000000  1.000000  1.000000 ScalE2=  1.000000  1.000000
 IRadAn=      5 IRanWt=     -1 IRanGd=            0 ICorTp=0 IEmpDi=131
 NAtoms=   59 NActive=   59 NUniq=   59 SFac= 1.00D+00 NAtFMM=   60 NAOKFM=F Big=F
 Integral buffers will be    131072 words long.
 Raffenetti 2 integral format.
 Two-electron integral symmetry is turned on.
 R6Disp:  Grimme-D3 Dispersion energy=       -0.0043164263 Hartrees.
 Nuclear repulsion after empirical dispersion term =     4142.9730593724 Hartrees.
 ------------------------------------------------------------------------------
 Polarizable Continuum Model (PCM)
 =================================
 Model                : PCM.
 Atomic radii         : UFF (Universal Force Field).
 Polarization charges : Total charges.
 Charge compensation  : None.
 Solution method      : On-the-fly selection.
 Cavity type          : Scaled VdW (van der Waals Surface) (Alpha=1.100).
 Cavity algorithm     : GePol (No added spheres)
                        Default sphere list used, NSphG=   59.
                        Lebedev-Laikov grids with approx.  5.0 points / Ang**2.
                        Smoothing algorithm: York/Karplus (Gamma=1.0000).
                        Polarization charges: spherical gaussians, with
                                              point-specific exponents (IZeta= 3).
                        Self-potential: point-specific (ISelfS= 7).
                        Self-field    : sphere-specific E.n sum rule (ISelfD= 2).
 Solvent              : Water, Eps=  78.355300 Eps(inf)=   1.777849
 ------------------------------------------------------------------------------
 GePol: Number of generator spheres                  =      59
 GePol: Total number of spheres                      =      59
 GePol: Number of exposed spheres                    =      59 (100.00%)
 GePol: Number of points                             =    4611
 GePol: Average weight of points                     =       0.12
 GePol: Minimum weight of points                     =   0.35D-11
 GePol: Maximum weight of points                     =    0.20577
 GePol: Number of points with low weight             =     274
 GePol: Fraction of low-weight points (<1% of avg)   =       5.94%
 GePol: Cavity surface area                          =    575.954 Ang**2
 GePol: Cavity volume                                =    659.993 Ang**3
 Leave Link  301 at Sat Nov  8 05:25:17 2025, MaxMem= 30870077440 cpu:               3.5 elap:               0.1
 (Enter /public/software/gauss/g16/l302.exe)
 NPDir=0 NMtPBC=     1 NCelOv=     1 NCel=       1 NClECP=     1 NCelD=      1
         NCelK=      1 NCelE2=     1 NClLst=     1 CellRange=     0.0.
 One-electron integrals computed using PRISM.
 One-electron integral symmetry used in STVInt
   1 Symmetry operations used in ECPInt.
 ECPInt:  NShTT=  153735 NPrTT=  454565 LenC2=   98919 LenP2D=  198495.
 LDataN:  DoStor=T MaxTD1= 6 Len=  172
 NBasis=  1506 RedAO= T EigKep=  5.56D-06  NBF=  1506
 NBsUse=  1506 1.00D-06 EigRej= -1.00D+00 NBFU=  1506
 Precomputing XC quadrature grid using
 IXCGrd= 4 IRadAn=           5 IRanWt=          -1 IRanGd=           0 AccXCQ= 0.00D+00.
 Generated NRdTot=       0 NPtTot=           0 NUsed=           0 NTot=          32
 NSgBfM=  1517  1517  1517  1517  1517 MxSgAt=    59 MxSgA2=    59.
 Leave Link  302 at Sat Nov  8 05:25:23 2025, MaxMem= 30870077440 cpu:             371.4 elap:               5.9
 (Enter /public/software/gauss/g16/l303.exe)
 DipDrv:  MaxL=1.
 Leave Link  303 at Sat Nov  8 05:25:24 2025, MaxMem= 30870077440 cpu:              19.4 elap:               0.4
 (Enter /public/software/gauss/g16/l401.exe)
 ExpMin= 6.06D-02 ExpMax= 3.55D+04 ExpMxC= 1.21D+03 IAcc=3 IRadAn=         5 AccDes= 0.00D+00
 Harris functional with IExCor= 1009 and IRadAn=       5 diagonalized for initial guess.
 HarFok:  IExCor= 1009 AccDes= 0.00D+00 IRadAn=         5 IDoV= 1 UseB2=F ITyADJ=14
 ICtDFT=  3500011 ScaDFX=  1.000000  1.000000  1.000000  1.000000
 FoFCou: FMM=F IPFlag=           0 FMFlag=      100000 FMFlg1=           0
         NFxFlg=           0 DoJE=T BraDBF=F KetDBF=T FulRan=T
         wScrn=  0.000000 ICntrl=       500 IOpCl=  0 I1Cent=   200000004 NGrid=           0
         NMat0=    1 NMatS0=      1 NMatT0=    0 NMatD0=    1 NMtDS0=    0 NMtDT0=    0
 Petite list used in FoFCou.
 Harris En= -1909.19999414438    
 JPrj=0 DoOrth=F DoCkMO=F.
 Initial guess <Sx>= 0.0000 <Sy>= 0.0000 <Sz>= 0.5000 <S**2>= 0.7500 S= 0.5000
 Leave Link  401 at Sat Nov  8 05:25:31 2025, MaxMem= 30870077440 cpu:             464.2 elap:               7.3
 (Enter /public/software/gauss/g16/l502.exe)
 Integral symmetry usage will be decided dynamically.
 UHF open shell SCF:
 Using DIIS extrapolation, IDIIS=  1040.
 NGot= 30870077440 LenX= 30864001379 LenY= 30861024029
 Requested convergence on RMS density matrix=1.00D-08 within 128 cycles.
 Requested convergence on MAX density matrix=1.00D-06.
 Requested convergence on             energy=1.00D-06.
 No special actions if energy rises.
 Fock matrices will be formed incrementally for  20 cycles.

 Cycle   1  Pass 1  IDiag  1:
 FoFJK:  IHMeth= 1 ICntrl=       0 DoSepK=F KAlg= 0 I1Cent=           0 FoldK=F
 IRaf= 550000000 NMat=       1 IRICut=       1 DoRegI=T DoRafI=F ISym2E= 0 IDoP0=0 IntGTp=1.
 FoFCou: FMM=F IPFlag=           0 FMFlag=      100000 FMFlg1=           0
         NFxFlg=           0 DoJE=F BraDBF=F KetDBF=F FulRan=T
         wScrn=  0.000000 ICntrl=         0 IOpCl=  1 I1Cent=           0 NGrid=           0
         NMat0=    1 NMatS0=      1 NMatT0=    0 NMatD0=    1 NMtDS0=    0 NMtDT0=    0
 Symmetry not used in FoFCou.
 Inv3:  Mode=1 IEnd=    63783963.
 Iteration    1 A*A^-1 deviation from unit magnitude is 1.28D-14 for   1079.
 Iteration    1 A*A^-1 deviation from orthogonality  is 6.64D-15 for   3201     51.
 Iteration    1 A^-1*A deviation from unit magnitude is 1.31D-14 for    942.
 Iteration    1 A^-1*A deviation from orthogonality  is 4.83D-15 for   2708    654.
 E= -1909.48898085224    
 DIIS: error= 1.66D-02 at cycle   1 NSaved=   1.
 NSaved= 1 IEnMin= 1 EnMin= -1909.48898085224     IErMin= 1 ErrMin= 1.66D-02
 ErrMax= 1.66D-02  0.00D+00 EMaxC= 1.00D-01 BMatC= 4.40D+00 BMatP= 4.40D+00
 IDIUse=3 WtCom= 8.34D-01 WtEn= 1.66D-01
 Coeff-Com:  0.100D+01
 Coeff-En:   0.100D+01
 Coeff:      0.100D+01
 Gap=     0.190 Goal=   None    Shift=    0.000
 Gap=     0.265 Goal=   None    Shift=    0.000
 GapD=    0.190 DampG=1.000 DampE=0.500 DampFc=0.5000 IDamp=-1.
 Damping current iteration by 5.00D-01
 RMSDP=1.49D-03 MaxDP=1.92D-01              OVMax= 2.26D-01

 Cycle   2  Pass 1  IDiag  1:
 RMSU=  7.46D-04    CP:  9.92D-01
 E= -1909.89165555536     Delta-E=       -0.402674703122 Rises=F Damp=T
 DIIS: error= 5.56D-03 at cycle   2 NSaved=   2.
 NSaved= 2 IEnMin= 2 EnMin= -1909.89165555536     IErMin= 2 ErrMin= 5.56D-03
 ErrMax= 5.56D-03  0.00D+00 EMaxC= 1.00D-01 BMatC= 4.65D-01 BMatP= 4.40D+00
 IDIUse=3 WtCom= 9.44D-01 WtEn= 5.56D-02
 Coeff-Com: -0.125D+00 0.113D+01
 Coeff-En:   0.000D+00 0.100D+01
 Coeff:     -0.118D+00 0.112D+01
 Gap=     0.200 Goal=   None    Shift=    0.000
 Gap=     0.148 Goal=   None    Shift=    0.000
 RMSDP=6.19D-04 MaxDP=5.91D-02 DE=-4.03D-01 OVMax= 1.49D-01

 Cycle   3  Pass 1  IDiag  1:
 RMSU=  6.00D-04    CP:  9.71D-01  1.16D+00
 E= -1910.25593549049     Delta-E=       -0.364279935129 Rises=F Damp=F
 DIIS: error= 4.45D-03 at cycle   3 NSaved=   3.
 NSaved= 3 IEnMin= 3 EnMin= -1910.25593549049     IErMin= 3 ErrMin= 4.45D-03
 ErrMax= 4.45D-03  0.00D+00 EMaxC= 1.00D-01 BMatC= 2.04D-01 BMatP= 4.65D-01
 IDIUse=3 WtCom= 9.55D-01 WtEn= 4.45D-02
 Coeff-Com: -0.136D+00 0.481D+00 0.655D+00
 Coeff-En:   0.000D+00 0.000D+00 0.100D+01
 Coeff:     -0.130D+00 0.459D+00 0.670D+00
 Gap=     0.174 Goal=   None    Shift=    0.000
 Gap=     0.130 Goal=   None    Shift=    0.000
 RMSDP=1.85D-04 MaxDP=1.63D-02 DE=-3.64D-01 OVMax= 6.19D-02

 Cycle   4  Pass 1  IDiag  1:
 RMSU=  1.79D-04    CP:  9.73D-01  1.20D+00  9.30D-01
 E= -1910.29376474951     Delta-E=       -0.037829259019 Rises=F Damp=F
 DIIS: error= 1.69D-03 at cycle   4 NSaved=   4.
 NSaved= 4 IEnMin= 4 EnMin= -1910.29376474951     IErMin= 4 ErrMin= 1.69D-03
 ErrMax= 1.69D-03  0.00D+00 EMaxC= 1.00D-01 BMatC= 3.06D-02 BMatP= 2.04D-01
 IDIUse=3 WtCom= 9.83D-01 WtEn= 1.69D-02
 Coeff-Com: -0.483D-01 0.118D+00 0.334D+00 0.596D+00
 Coeff-En:   0.000D+00 0.000D+00 0.869D-01 0.913D+00
 Coeff:     -0.475D-01 0.116D+00 0.330D+00 0.601D+00
 Gap=     0.171 Goal=   None    Shift=    0.000
 Gap=     0.134 Goal=   None    Shift=    0.000
 RMSDP=6.56D-05 MaxDP=6.52D-03 DE=-3.78D-02 OVMax= 2.10D-02

 Cycle   5  Pass 1  IDiag  1:
 RMSU=  4.75D-05    CP:  9.72D-01  1.21D+00  9.38D-01  7.53D-01
 E= -1910.30020969637     Delta-E=       -0.006444946861 Rises=F Damp=F
 DIIS: error= 7.48D-04 at cycle   5 NSaved=   5.
 NSaved= 5 IEnMin= 5 EnMin= -1910.30020969637     IErMin= 5 ErrMin= 7.48D-04
 ErrMax= 7.48D-04  0.00D+00 EMaxC= 1.00D-01 BMatC= 2.69D-03 BMatP= 3.06D-02
 IDIUse=3 WtCom= 9.93D-01 WtEn= 7.48D-03
 Coeff-Com: -0.185D-01 0.377D-01 0.142D+00 0.325D+00 0.514D+00
 Coeff-En:   0.000D+00 0.000D+00 0.000D+00 0.000D+00 0.100D+01
 Coeff:     -0.183D-01 0.375D-01 0.141D+00 0.322D+00 0.518D+00
 Gap=     0.171 Goal=   None    Shift=    0.000
 Gap=     0.135 Goal=   None    Shift=    0.000
 RMSDP=1.72D-05 MaxDP=3.77D-03 DE=-6.44D-03 OVMax= 9.58D-03

 Cycle   6  Pass 1  IDiag  1:
 RMSU=  1.67D-05    CP:  9.72D-01  1.21D+00  9.41D-01  7.64D-01  9.44D-01
 E= -1910.30073727278     Delta-E=       -0.000527576409 Rises=F Damp=F
 DIIS: error= 3.07D-04 at cycle   6 NSaved=   6.
 NSaved= 6 IEnMin= 6 EnMin= -1910.30073727278     IErMin= 6 ErrMin= 3.07D-04
 ErrMax= 3.07D-04  0.00D+00 EMaxC= 1.00D-01 BMatC= 4.35D-04 BMatP= 2.69D-03
 IDIUse=3 WtCom= 9.97D-01 WtEn= 3.07D-03
 Coeff-Com: -0.285D-02 0.317D-02 0.268D-01 0.870D-01 0.302D+00 0.584D+00
 Coeff-En:   0.000D+00 0.000D+00 0.000D+00 0.000D+00 0.506D-01 0.949D+00
 Coeff:     -0.284D-02 0.316D-02 0.267D-01 0.867D-01 0.301D+00 0.585D+00
 Gap=     0.172 Goal=   None    Shift=    0.000
 Gap=     0.136 Goal=   None    Shift=    0.000
 RMSDP=9.19D-06 MaxDP=1.07D-03 DE=-5.28D-04 OVMax= 3.88D-03

 Cycle   7  Pass 1  IDiag  1:
 RMSU=  7.38D-06    CP:  9.72D-01  1.21D+00  9.41D-01  7.79D-01  1.04D+00
                    CP:  1.06D+00
 E= -1910.30086214265     Delta-E=       -0.000124869865 Rises=F Damp=F
 DIIS: error= 9.29D-05 at cycle   7 NSaved=   7.
 NSaved= 7 IEnMin= 7 EnMin= -1910.30086214265     IErMin= 7 ErrMin= 9.29D-05
 ErrMax= 9.29D-05  0.00D+00 EMaxC= 1.00D-01 BMatC= 5.07D-05 BMatP= 4.35D-04
 IDIUse=1 WtCom= 1.00D+00 WtEn= 0.00D+00
 Coeff-Com:  0.269D-02-0.639D-02-0.203D-01-0.373D-01 0.521D-02 0.217D+00
 Coeff-Com:  0.839D+00
 Coeff:      0.269D-02-0.639D-02-0.203D-01-0.373D-01 0.521D-02 0.217D+00
 Coeff:      0.839D+00
 Gap=     0.173 Goal=   None    Shift=    0.000
 Gap=     0.137 Goal=   None    Shift=    0.000
 RMSDP=7.69D-06 MaxDP=7.61D-04 DE=-1.25D-04 OVMax= 3.50D-03

 Cycle   8  Pass 1  IDiag  1:
 RMSU=  4.42D-06    CP:  9.72D-01  1.21D+00  9.41D-01  7.87D-01  1.13D+00
                    CP:  1.26D+00  1.41D+00
 E= -1910.30089848498     Delta-E=       -0.000036342331 Rises=F Damp=F
 DIIS: error= 4.40D-05 at cycle   8 NSaved=   8.
 NSaved= 8 IEnMin= 8 EnMin= -1910.30089848498     IErMin= 8 ErrMin= 4.40D-05
 ErrMax= 4.40D-05  0.00D+00 EMaxC= 1.00D-01 BMatC= 1.46D-05 BMatP= 5.07D-05
 IDIUse=1 WtCom= 1.00D+00 WtEn= 0.00D+00
 Coeff-Com:  0.197D-02-0.371D-02-0.162D-01-0.404D-01-0.859D-01-0.826D-01
 Coeff-Com:  0.344D+00 0.882D+00
 Coeff:      0.197D-02-0.371D-02-0.162D-01-0.404D-01-0.859D-01-0.826D-01
 Coeff:      0.344D+00 0.882D+00
 Gap=     0.174 Goal=   None    Shift=    0.000
 Gap=     0.137 Goal=   None    Shift=    0.000
 RMSDP=5.23D-06 MaxDP=6.04D-04 DE=-3.63D-05 OVMax= 2.74D-03

 Cycle   9  Pass 1  IDiag  1:
 RMSU=  2.34D-06    CP:  9.72D-01  1.21D+00  9.42D-01  7.93D-01  1.17D+00
                    CP:  1.40D+00  1.78D+00  1.36D+00
 E= -1910.30091258958     Delta-E=       -0.000014104604 Rises=F Damp=F
 DIIS: error= 2.65D-05 at cycle   9 NSaved=   9.
 NSaved= 9 IEnMin= 9 EnMin= -1910.30091258958     IErMin= 9 ErrMin= 2.65D-05
 ErrMax= 2.65D-05  0.00D+00 EMaxC= 1.00D-01 BMatC= 3.03D-06 BMatP= 1.46D-05
 IDIUse=1 WtCom= 1.00D+00 WtEn= 0.00D+00
 Coeff-Com: -0.667D-04 0.430D-03 0.263D-03-0.240D-02-0.273D-01-0.748D-01
 Coeff-Com: -0.876D-01 0.256D+00 0.936D+00
 Coeff:     -0.667D-04 0.430D-03 0.263D-03-0.240D-02-0.273D-01-0.748D-01
 Coeff:     -0.876D-01 0.256D+00 0.936D+00
 Gap=     0.174 Goal=   None    Shift=    0.000
 Gap=     0.138 Goal=   None    Shift=    0.000
 RMSDP=2.63D-06 MaxDP=2.61D-04 DE=-1.41D-05 OVMax= 1.43D-03

 Cycle  10  Pass 1  IDiag  1:
 RMSU=  1.16D-06    CP:  9.72D-01  1.21D+00  9.42D-01  7.93D-01  1.19D+00
                    CP:  1.45D+00  1.95D+00  1.67D+00  1.44D+00
 E= -1910.30091602184     Delta-E=       -0.000003432260 Rises=F Damp=F
 DIIS: error= 1.59D-05 at cycle  10 NSaved=  10.
 NSaved=10 IEnMin=10 EnMin= -1910.30091602184     IErMin=10 ErrMin= 1.59D-05
 ErrMax= 1.59D-05  0.00D+00 EMaxC= 1.00D-01 BMatC= 1.13D-06 BMatP= 3.03D-06
 IDIUse=1 WtCom= 1.00D+00 WtEn= 0.00D+00
 Coeff-Com: -0.577D-03 0.127D-02 0.457D-02 0.989D-02 0.837D-02-0.167D-01
 Coeff-Com: -0.137D+00-0.113D+00 0.467D+00 0.777D+00
 Coeff:     -0.577D-03 0.127D-02 0.457D-02 0.989D-02 0.837D-02-0.167D-01
 Coeff:     -0.137D+00-0.113D+00 0.467D+00 0.777D+00
 Gap=     0.174 Goal=   None    Shift=    0.000
 Gap=     0.138 Goal=   None    Shift=    0.000
 RMSDP=1.40D-06 MaxDP=1.54D-04 DE=-3.43D-06 OVMax= 7.80D-04

 Cycle  11  Pass 1  IDiag  1:
 RMSU=  5.97D-07    CP:  9.72D-01  1.21D+00  9.42D-01  7.94D-01  1.19D+00
                    CP:  1.47D+00  2.03D+00  1.83D+00  1.72D+00  1.36D+00
 E= -1910.30091704676     Delta-E=       -0.000001024920 Rises=F Damp=F
 DIIS: error= 7.88D-06 at cycle  11 NSaved=  11.
 NSaved=11 IEnMin=11 EnMin= -1910.30091704676     IErMin=11 ErrMin= 7.88D-06
 ErrMax= 7.88D-06  0.00D+00 EMaxC= 1.00D-01 BMatC= 1.67D-07 BMatP= 1.13D-06
 IDIUse=1 WtCom= 1.00D+00 WtEn= 0.00D+00
 Coeff-Com: -0.991D-04 0.162D-03 0.889D-03 0.274D-02 0.708D-02 0.107D-01
 Coeff-Com: -0.119D-01-0.716D-01-0.971D-01 0.184D+00 0.975D+00
 Coeff:     -0.991D-04 0.162D-03 0.889D-03 0.274D-02 0.708D-02 0.107D-01
 Coeff:     -0.119D-01-0.716D-01-0.971D-01 0.184D+00 0.975D+00
 Gap=     0.174 Goal=   None    Shift=    0.000
 Gap=     0.138 Goal=   None    Shift=    0.000
 RMSDP=7.28D-07 MaxDP=8.14D-05 DE=-1.02D-06 OVMax= 5.49D-04

 Cycle  12  Pass 1  IDiag  1:
 RMSU=  3.11D-07    CP:  9.72D-01  1.21D+00  9.42D-01  7.93D-01  1.19D+00
                    CP:  1.47D+00  2.05D+00  1.87D+00  1.87D+00  1.73D+00
                    CP:  1.40D+00
 E= -1910.30091732765     Delta-E=       -0.000000280887 Rises=F Damp=F
 DIIS: error= 4.77D-06 at cycle  12 NSaved=  12.
 NSaved=12 IEnMin=12 EnMin= -1910.30091732765     IErMin=12 ErrMin= 4.77D-06
 ErrMax= 4.77D-06  0.00D+00 EMaxC= 1.00D-01 BMatC= 4.75D-08 BMatP= 1.67D-07
 IDIUse=1 WtCom= 1.00D+00 WtEn= 0.00D+00
 Coeff-Com:  0.106D-03-0.243D-03-0.800D-03-0.162D-02-0.135D-03 0.620D-02
 Coeff-Com:  0.257D-01 0.905D-02-0.135D+00-0.121D+00 0.232D+00 0.985D+00
 Coeff:      0.106D-03-0.243D-03-0.800D-03-0.162D-02-0.135D-03 0.620D-02
 Coeff:      0.257D-01 0.905D-02-0.135D+00-0.121D+00 0.232D+00 0.985D+00
 Gap=     0.174 Goal=   None    Shift=    0.000
 Gap=     0.138 Goal=   None    Shift=    0.000
 RMSDP=4.22D-07 MaxDP=5.80D-05 DE=-2.81D-07 OVMax= 3.58D-04

 Cycle  13  Pass 1  IDiag  1:
 RMSU=  1.48D-07    CP:  9.72D-01  1.21D+00  9.42D-01  7.93D-01  1.19D+00
                    CP:  1.47D+00  2.06D+00  1.89D+00  1.94D+00  1.91D+00
                    CP:  1.76D+00  1.50D+00
 E= -1910.30091742553     Delta-E=       -0.000000097874 Rises=F Damp=F
 DIIS: error= 3.31D-06 at cycle  13 NSaved=  13.
 NSaved=13 IEnMin=13 EnMin= -1910.30091742553     IErMin=13 ErrMin= 3.31D-06
 ErrMax= 3.31D-06  0.00D+00 EMaxC= 1.00D-01 BMatC= 2.04D-08 BMatP= 4.75D-08
 IDIUse=1 WtCom= 1.00D+00 WtEn= 0.00D+00
 Coeff-Com:  0.727D-04-0.148D-03-0.589D-03-0.152D-02-0.194D-02-0.266D-03
 Coeff-Com:  0.142D-01 0.253D-01-0.325D-01-0.102D+00-0.185D+00 0.442D+00
 Coeff-Com:  0.842D+00
 Coeff:      0.727D-04-0.148D-03-0.589D-03-0.152D-02-0.194D-02-0.266D-03
 Coeff:      0.142D-01 0.253D-01-0.325D-01-0.102D+00-0.185D+00 0.442D+00
 Coeff:      0.842D+00
 Gap=     0.174 Goal=   None    Shift=    0.000
 Gap=     0.138 Goal=   None    Shift=    0.000
 RMSDP=2.35D-07 MaxDP=3.09D-05 DE=-9.79D-08 OVMax= 2.08D-04

 Cycle  14  Pass 1  IDiag  1:
 RMSU=  8.35D-08    CP:  9.72D-01  1.21D+00  9.41D-01  7.93D-01  1.19D+00
                    CP:  1.47D+00  2.06D+00  1.90D+00  1.96D+00  2.01D+00
                    CP:  1.95D+00  1.86D+00  1.50D+00
 E= -1910.30091746016     Delta-E=       -0.000000034635 Rises=F Damp=F
 DIIS: error= 2.22D-06 at cycle  14 NSaved=  14.
 NSaved=14 IEnMin=14 EnMin= -1910.30091746016     IErMin=14 ErrMin= 2.22D-06
 ErrMax= 2.22D-06  0.00D+00 EMaxC= 1.00D-01 BMatC= 5.90D-09 BMatP= 2.04D-08
 IDIUse=1 WtCom= 1.00D+00 WtEn= 0.00D+00
 Coeff-Com: -0.187D-04 0.468D-04 0.132D-03 0.137D-03-0.445D-03-0.242D-02
 Coeff-Com: -0.607D-02 0.382D-02 0.393D-01 0.147D-01-0.140D+00-0.243D+00
 Coeff-Com:  0.227D+00 0.111D+01
 Coeff:     -0.187D-04 0.468D-04 0.132D-03 0.137D-03-0.445D-03-0.242D-02
 Coeff:     -0.607D-02 0.382D-02 0.393D-01 0.147D-01-0.140D+00-0.243D+00
 Coeff:      0.227D+00 0.111D+01
 Gap=     0.174 Goal=   None    Shift=    0.000
 Gap=     0.138 Goal=   None    Shift=    0.000
 RMSDP=1.83D-07 MaxDP=2.67D-05 DE=-3.46D-08 OVMax= 1.68D-04

 Cycle  15  Pass 1  IDiag  1:
 RMSU=  5.32D-08    CP:  9.72D-01  1.21D+00  9.42D-01  7.93D-01  1.19D+00
                    CP:  1.48D+00  2.07D+00  1.91D+00  1.98D+00  2.05D+00
                    CP:  2.06D+00  2.15D+00  2.13D+00  1.74D+00
 E= -1910.30091747509     Delta-E=       -0.000000014931 Rises=F Damp=F
 DIIS: error= 1.06D-06 at cycle  15 NSaved=  15.
 NSaved=15 IEnMin=15 EnMin= -1910.30091747509     IErMin=15 ErrMin= 1.06D-06
 ErrMax= 1.06D-06  0.00D+00 EMaxC= 1.00D-01 BMatC= 1.93D-09 BMatP= 5.90D-09
 IDIUse=1 WtCom= 1.00D+00 WtEn= 0.00D+00
 Coeff-Com: -0.272D-04 0.584D-04 0.223D-03 0.499D-03 0.446D-03-0.684D-03
 Coeff-Com: -0.663D-02-0.624D-02 0.219D-01 0.354D-01 0.263D-01-0.213D+00
 Coeff-Com: -0.213D+00 0.375D+00 0.979D+00
 Coeff:     -0.272D-04 0.584D-04 0.223D-03 0.499D-03 0.446D-03-0.684D-03
 Coeff:     -0.663D-02-0.624D-02 0.219D-01 0.354D-01 0.263D-01-0.213D+00
 Coeff:     -0.213D+00 0.375D+00 0.979D+00
 Gap=     0.174 Goal=   None    Shift=    0.000
 Gap=     0.138 Goal=   None    Shift=    0.000
 RMSDP=9.11D-08 MaxDP=1.20D-05 DE=-1.49D-08 OVMax= 1.00D-04

 Cycle  16  Pass 1  IDiag  1:
 RMSU=  2.71D-08    CP:  9.72D-01  1.21D+00  9.42D-01  7.93D-01  1.19D+00
                    CP:  1.48D+00  2.07D+00  1.91D+00  1.98D+00  2.07D+00
                    CP:  2.10D+00  2.26D+00  2.45D+00  2.32D+00  1.50D+00
 E= -1910.30091747911     Delta-E=       -0.000000004019 Rises=F Damp=F
 DIIS: error= 6.01D-07 at cycle  16 NSaved=  16.
 NSaved=16 IEnMin=16 EnMin= -1910.30091747911     IErMin=16 ErrMin= 6.01D-07
 ErrMax= 6.01D-07  0.00D+00 EMaxC= 1.00D-01 BMatC= 5.62D-10 BMatP= 1.93D-09
 IDIUse=1 WtCom= 1.00D+00 WtEn= 0.00D+00
 Coeff-Com: -0.447D-05 0.798D-05 0.475D-04 0.154D-03 0.326D-03 0.505D-03
 Coeff-Com: -0.894D-03-0.320D-02-0.362D-02 0.801D-02 0.582D-01-0.109D-01
 Coeff-Com: -0.171D+00-0.178D+00 0.389D+00 0.911D+00
 Coeff:     -0.447D-05 0.798D-05 0.475D-04 0.154D-03 0.326D-03 0.505D-03
 Coeff:     -0.894D-03-0.320D-02-0.362D-02 0.801D-02 0.582D-01-0.109D-01
 Coeff:     -0.171D+00-0.178D+00 0.389D+00 0.911D+00
 Gap=     0.174 Goal=   None    Shift=    0.000
 Gap=     0.138 Goal=   None    Shift=    0.000
 RMSDP=5.00D-08 MaxDP=5.10D-06 DE=-4.02D-09 OVMax= 6.12D-05

 Cycle  17  Pass 1  IDiag  1:
 RMSU=  1.41D-08    CP:  9.72D-01  1.21D+00  9.41D-01  7.93D-01  1.19D+00
                    CP:  1.48D+00  2.07D+00  1.91D+00  1.98D+00  2.07D+00
                    CP:  2.11D+00  2.30D+00  2.61D+00  2.64D+00  1.89D+00
                    CP:  1.67D+00
 E= -1910.30091748034     Delta-E=       -0.000000001226 Rises=F Damp=F
 DIIS: error= 2.41D-07 at cycle  17 NSaved=  17.
 NSaved=17 IEnMin=17 EnMin= -1910.30091748034     IErMin=17 ErrMin= 2.41D-07
 ErrMax= 2.41D-07  0.00D+00 EMaxC= 1.00D-01 BMatC= 1.24D-10 BMatP= 5.62D-10
 IDIUse=1 WtCom= 1.00D+00 WtEn= 0.00D+00
 Coeff-Com:  0.495D-05-0.113D-04-0.382D-04-0.688D-04 0.568D-05 0.328D-03
 Coeff-Com:  0.114D-02 0.789D-03-0.614D-02-0.683D-02 0.110D-01 0.505D-01
 Coeff-Com: -0.159D-02-0.133D+00-0.139D+00 0.243D+00 0.979D+00
 Coeff:      0.495D-05-0.113D-04-0.382D-04-0.688D-04 0.568D-05 0.328D-03
 Coeff:      0.114D-02 0.789D-03-0.614D-02-0.683D-02 0.110D-01 0.505D-01
 Coeff:     -0.159D-02-0.133D+00-0.139D+00 0.243D+00 0.979D+00
 Gap=     0.174 Goal=   None    Shift=    0.000
 Gap=     0.138 Goal=   None    Shift=    0.000
 RMSDP=2.56D-08 MaxDP=2.59D-06 DE=-1.23D-09 OVMax= 3.40D-05

 Cycle  18  Pass 1  IDiag  1:
 RMSU=  7.27D-09    CP:  9.72D-01  1.21D+00  9.41D-01  7.93D-01  1.19D+00
                    CP:  1.48D+00  2.07D+00  1.91D+00  1.98D+00  2.07D+00
                    CP:  2.11D+00  2.32D+00  2.66D+00  2.77D+00  2.10D+00
                    CP:  2.21D+00  1.47D+00
 E= -1910.30091748042     Delta-E=       -0.000000000083 Rises=F Damp=F
 DIIS: error= 1.38D-07 at cycle  18 NSaved=  18.
 NSaved=18 IEnMin=18 EnMin= -1910.30091748042     IErMin=18 ErrMin= 1.38D-07
 ErrMax= 1.38D-07  0.00D+00 EMaxC= 1.00D-01 BMatC= 4.45D-11 BMatP= 1.24D-10
 IDIUse=1 WtCom= 1.00D+00 WtEn= 0.00D+00
 Coeff-Com:  0.282D-05-0.595D-05-0.264D-04-0.633D-04-0.730D-04 0.669D-05
 Coeff-Com:  0.595D-03 0.126D-02-0.142D-02-0.486D-02-0.940D-02 0.224D-01
 Coeff-Com:  0.372D-01-0.770D-02-0.146D+00-0.136D+00 0.411D+00 0.833D+00
 Coeff:      0.282D-05-0.595D-05-0.264D-04-0.633D-04-0.730D-04 0.669D-05
 Coeff:      0.595D-03 0.126D-02-0.142D-02-0.486D-02-0.940D-02 0.224D-01
 Coeff:      0.372D-01-0.770D-02-0.146D+00-0.136D+00 0.411D+00 0.833D+00
 Gap=     0.174 Goal=   None    Shift=    0.000
 Gap=     0.138 Goal=   None    Shift=    0.000
 RMSDP=1.33D-08 MaxDP=1.42D-06 DE=-8.28D-11 OVMax= 1.76D-05

 Cycle  19  Pass 1  IDiag  1:
 RMSU=  3.53D-09    CP:  9.72D-01  1.21D+00  9.41D-01  7.93D-01  1.19D+00
                    CP:  1.47D+00  2.07D+00  1.91D+00  1.98D+00  2.07D+00
                    CP:  2.11D+00  2.33D+00  2.68D+00  2.83D+00  2.18D+00
                    CP:  2.48D+00  1.85D+00  1.50D+00
 E= -1910.30091748057     Delta-E=       -0.000000000154 Rises=F Damp=F
 DIIS: error= 8.54D-08 at cycle  19 NSaved=  19.
 NSaved=19 IEnMin=19 EnMin= -1910.30091748057     IErMin=19 ErrMin= 8.54D-08
 ErrMax= 8.54D-08  0.00D+00 EMaxC= 1.00D-01 BMatC= 1.09D-11 BMatP= 4.45D-11
 IDIUse=1 WtCom= 1.00D+00 WtEn= 0.00D+00
 Coeff-Com: -0.813D-06 0.191D-05 0.394D-05 0.208D-05-0.209D-04-0.109D-03
 Coeff-Com: -0.224D-03 0.237D-03 0.150D-02 0.445D-03-0.630D-02-0.934D-02
 Coeff-Com:  0.116D-01 0.439D-01 0.246D-02-0.141D+00-0.189D+00 0.259D+00
 Coeff-Com:  0.103D+01
 Coeff:     -0.813D-06 0.191D-05 0.394D-05 0.208D-05-0.209D-04-0.109D-03
 Coeff:     -0.224D-03 0.237D-03 0.150D-02 0.445D-03-0.630D-02-0.934D-02
 Coeff:      0.116D-01 0.439D-01 0.246D-02-0.141D+00-0.189D+00 0.259D+00
 Coeff:      0.103D+01
 Gap=     0.174 Goal=   None    Shift=    0.000
 Gap=     0.138 Goal=   None    Shift=    0.000
 RMSDP=9.14D-09 MaxDP=1.03D-06 DE=-1.54D-10 OVMax= 1.24D-05

 Cycle  20  Pass 1  IDiag  1:
 RMSU=  2.19D-09    CP:  9.72D-01  1.21D+00  9.41D-01  7.93D-01  1.19D+00
                    CP:  1.47D+00  2.07D+00  1.91D+00  1.98D+00  2.07D+00
                    CP:  2.11D+00  2.33D+00  2.70D+00  2.86D+00  2.23D+00
                    CP:  2.65D+00  2.11D+00  2.03D+00  1.59D+00
 E= -1910.30091748076     Delta-E=       -0.000000000185 Rises=F Damp=F
 DIIS: error= 3.64D-08 at cycle  20 NSaved=  20.
 NSaved=20 IEnMin=20 EnMin= -1910.30091748076     IErMin=20 ErrMin= 3.64D-08
 ErrMax= 3.64D-08  0.00D+00 EMaxC= 1.00D-01 BMatC= 3.22D-12 BMatP= 1.09D-11
 IDIUse=1 WtCom= 1.00D+00 WtEn= 0.00D+00
 Coeff-Com: -0.835D-06 0.183D-05 0.656D-05 0.128D-04 0.835D-05-0.453D-04
 Coeff-Com: -0.212D-03-0.129D-03 0.800D-03 0.107D-02-0.295D-03-0.792D-02
 Coeff-Com: -0.328D-02 0.182D-01 0.301D-01-0.313D-01-0.152D+00-0.868D-01
 Coeff-Com:  0.406D+00 0.826D+00
 Coeff:     -0.835D-06 0.183D-05 0.656D-05 0.128D-04 0.835D-05-0.453D-04
 Coeff:     -0.212D-03-0.129D-03 0.800D-03 0.107D-02-0.295D-03-0.792D-02
 Coeff:     -0.328D-02 0.182D-01 0.301D-01-0.313D-01-0.152D+00-0.868D-01
 Coeff:      0.406D+00 0.826D+00
 Gap=     0.174 Goal=   None    Shift=    0.000
 Gap=     0.138 Goal=   None    Shift=    0.000
 RMSDP=3.85D-09 MaxDP=4.29D-07 DE=-1.85D-10 OVMax= 5.17D-06

 Error on total polarization charges =  0.02428
 SCF Done:  E(UM062X) =  -1910.30091748     A.U. after   20 cycles
            NFock= 20  Conv=0.39D-08     -V/T= 2.0052
 <Sx>= 0.0000 <Sy>= 0.0000 <Sz>= 0.5000 <S**2>= 0.7751 S= 0.5125
 <L.S>= 0.000000000000E+00
 KE= 1.900493275773D+03 PE=-1.278186987296D+04 EE= 4.828102620329D+03
 Annihilation of the first spin contaminant:
 S**2 before annihilation     0.7751,   after     0.7505
 Leave Link  502 at Sat Nov  8 05:52:08 2025, MaxMem= 30870077440 cpu:          101154.5 elap:            1596.3
 (Enter /public/software/gauss/g16/l601.exe)
 Copying SCF densities to generalized density rwf, IOpCl= 1 IROHF=0.

 **********************************************************************

            Population analysis using the SCF density.

 **********************************************************************

 Orbital symmetries:
 Alpha Orbitals:
       Occupied  (A) (A) (A) (A) (A) (A) (A) (A) (A) (A) (A) (A)
                 (A) (A) (A) (A) (A) (A) (A) (A) (A) (A) (A) (A)
                 (A) (A) (A) (A) (A) (A) (A) (A) (A) (A) (A) (A)
                 (A) (A) (A) (A) (A) (A) (A) (A) (A) (A) (A) (A)
                 (A) (A) (A) (A) (A) (A) (A) (A) (A) (A) (A) (A)
                 (A) (A) (A) (A) (A) (A) (A) (A) (A) (A) (A) (A)
                 (A) (A) (A) (A) (A) (A) (A) (A) (A) (A) (A) (A)
                 (A) (A) (A) (A) (A) (A) (A) (A) (A) (A) (A) (A)
                 (A) (A) (A) (A) (A) (A) (A) (A) (A) (A) (A) (A)
                 (A) (A) (A) (A) (A) (A) (A) (A) (A) (A) (A) (A)
                 (A) (A) (A) (A) (A) (A) (A) (A) (A) (A) (A) (A)
                 (A) (A) (A) (A) (A) (A) (A) (A)
       Virtual   (A) (A) (A) (A) (A) (A) (A) (A) (A) (A) (A) (A)
                 (A) (A) (A) (A) (A) (A) (A) (A) (A) (A) (A) (A)
                 (A) (A) (A) (A) (A) (A) (A) (A) (A) (A) (A) (A)
                 (A) (A) (A) (A) (A) (A) (A) (A) (A) (A) (A) (A)
                 (A) (A) (A) (A) (A) (A) (A) (A) (A) (A) (A) (A)
                 (A) (A) (A) (A) (A) (A) (A) (A) (A) (A) (A) (A)
                 (A) (A) (A) (A) (A) (A) (A) (A) (A) (A) (A) (A)
                 (A) (A) (A) (A) (A) (A) (A) (A) (A) (A) (A) (A)
                 (A) (A) (A) (A) (A) (A) (A) (A) (A) (A) (A) (A)
                 (A) (A) (A) (A) (A) (A) (A) (A) (A) (A) (A) (A)
                 (A) (A) (A) (A) (A) (A) (A) (A) (A) (A) (A) (A)
                 (A) (A) (A) (A) (A) (A) (A) (A) (A) (A) (A) (A)
                 (A) (A) (A) (A) (A) (A) (A) (A) (A) (A) (A) (A)
                 (A) (A) (A) (A) (A) (A) (A) (A) (A) (A) (A) (A)
                 (A) (A) (A) (A) (A) (A) (A) (A) (A) (A) (A) (A)
                 (A) (A) (A) (A) (A) (A) (A) (A) (A) (A) (A) (A)
                 (A) (A) (A) (A) (A) (A) (A) (A) (A) (A) (A) (A)
                 (A) (A) (A) (A) (A) (A) (A) (A) (A) (A) (A) (A)
                 (A) (A) (A) (A) (A) (A) (A) (A) (A) (A) (A) (A)
                 (A) (A) (A) (A) (A) (A) (A) (A) (A) (A) (A) (A)
                 (A) (A) (A) (A) (A) (A) (A) (A) (A) (A) (A) (A)
                 (A) (A) (A) (A) (A) (A) (A) (A) (A) (A) (A) (A)
                 (A) (A) (A) (A) (A) (A) (A) (A) (A) (A) (A) (A)
                 (A) (A) (A) (A) (A) (A) (A) (A) (A) (A) (A) (A)
                 (A) (A) (A) (A) (A) (A) (A) (A) (A) (A) (A) (A)
                 (A) (A) (A) (A) (A) (A) (A) (A) (A) (A) (A) (A)
                 (A) (A) (A) (A) (A) (A) (A) (A) (A) (A) (A) (A)
                 (A) (A) (A) (A) (A) (A) (A) (A) (A) (A) (A) (A)
                 (A) (A) (A) (A) (A) (A) (A) (A) (A) (A) (A) (A)
                 (A) (A) (A) (A) (A) (A) (A) (A) (A) (A) (A) (A)
                 (A) (A) (A) (A) (A) (A) (A) (A) (A) (A) (A) (A)
                 (A) (A) (A) (A) (A) (A) (A) (A) (A) (A) (A) (A)
                 (A) (A) (A) (A) (A) (A) (A) (A) (A) (A) (A) (A)
                 (A) (A) (A) (A) (A) (A) (A) (A) (A) (A) (A) (A)
                 (A) (A) (A) (A) (A) (A) (A) (A) (A) (A) (A) (A)
                 (A) (A) (A) (A) (A) (A) (A) (A) (A) (A) (A) (A)
                 (A) (A) (A) (A) (A) (A) (A) (A) (A) (A) (A) (A)
                 (A) (A) (A) (A) (A) (A) (A) (A) (A) (A) (A) (A)
                 (A) (A) (A) (A) (A) (A) (A) (A) (A) (A) (A) (A)
                 (A) (A) (A) (A) (A) (A) (A) (A) (A) (A) (A) (A)
                 (A) (A) (A) (A) (A) (A) (A) (A) (A) (A) (A) (A)
                 (A) (A) (A) (A) (A) (A) (A) (A) (A) (A) (A) (A)
                 (A) (A) (A) (A) (A) (A) (A) (A) (A) (A) (A) (A)
                 (A) (A) (A) (A) (A) (A) (A) (A) (A) (A) (A) (A)
                 (A) (A) (A) (A) (A) (A) (A) (A) (A) (A) (A) (A)
                 (A) (A) (A) (A) (A) (A) (A) (A) (A) (A) (A) (A)
                 (A) (A) (A) (A) (A) (A) (A) (A) (A) (A) (A) (A)
                 (A) (A) (A) (A) (A) (A) (A) (A) (A) (A) (A) (A)
                 (A) (A) (A) (A) (A) (A) (A) (A) (A) (A) (A) (A)
                 (A) (A) (A) (A) (A) (A) (A) (A) (A) (A) (A) (A)
                 (A) (A) (A) (A) (A) (A) (A) (A) (A) (A) (A) (A)
                 (A) (A) (A) (A) (A) (A) (A) (A) (A) (A) (A) (A)
                 (A) (A) (A) (A) (A) (A) (A) (A) (A) (A) (A) (A)
                 (A) (A) (A) (A) (A) (A) (A) (A) (A) (A) (A) (A)
                 (A) (A) (A) (A) (A) (A) (A) (A) (A) (A) (A) (A)
                 (A) (A) (A) (A) (A) (A) (A) (A) (A) (A) (A) (A)
                 (A) (A) (A) (A) (A) (A) (A) (A) (A) (A) (A) (A)
                 (A) (A) (A) (A) (A) (A) (A) (A) (A) (A) (A) (A)
                 (A) (A) (A) (A) (A) (A) (A) (A) (A) (A) (A) (A)
                 (A) (A) (A) (A) (A) (A) (A) (A) (A) (A) (A) (A)
                 (A) (A) (A) (A) (A) (A) (A) (A) (A) (A) (A) (A)
                 (A) (A) (A) (A) (A) (A) (A) (A) (A) (A) (A) (A)
                 (A) (A) (A) (A) (A) (A) (A) (A) (A) (A) (A) (A)
                 (A) (A) (A) (A) (A) (A) (A) (A) (A) (A) (A) (A)
                 (A) (A) (A) (A) (A) (A) (A) (A) (A) (A) (A) (A)
                 (A) (A) (A) (A) (A) (A) (A) (A) (A) (A) (A) (A)
                 (A) (A) (A) (A) (A) (A) (A) (A) (A) (A) (A) (A)
                 (A) (A) (A) (A) (A) (A) (A) (A) (A) (A) (A) (A)
                 (A) (A) (A) (A) (A) (A) (A) (A) (A) (A) (A) (A)
                 (A) (A) (A) (A) (A) (A) (A) (A) (A) (A) (A) (A)
                 (A) (A) (A) (A) (A) (A) (A) (A) (A) (A) (A) (A)
                 (A) (A) (A) (A) (A) (A) (A) (A) (A) (A) (A) (A)
                 (A) (A) (A) (A) (A) (A) (A) (A) (A) (A) (A) (A)
                 (A) (A) (A) (A) (A) (A) (A) (A) (A) (A) (A) (A)
                 (A) (A) (A) (A) (A) (A) (A) (A) (A) (A) (A) (A)
                 (A) (A) (A) (A) (A) (A) (A) (A) (A) (A) (A) (A)
                 (A) (A) (A) (A) (A) (A) (A) (A) (A) (A) (A) (A)
                 (A) (A) (A) (A) (A) (A) (A) (A) (A) (A) (A) (A)
                 (A) (A) (A) (A) (A) (A) (A) (A) (A) (A) (A) (A)
                 (A) (A) (A) (A) (A) (A) (A) (A) (A) (A) (A) (A)
                 (A) (A) (A) (A) (A) (A) (A) (A) (A) (A) (A) (A)
                 (A) (A) (A) (A) (A) (A) (A) (A) (A) (A) (A) (A)
                 (A) (A) (A) (A) (A) (A) (A) (A) (A) (A) (A) (A)
                 (A) (A) (A) (A) (A) (A) (A) (A) (A) (A) (A) (A)
                 (A) (A) (A) (A) (A) (A) (A) (A) (A) (A) (A) (A)
                 (A) (A) (A) (A) (A) (A) (A) (A) (A) (A) (A) (A)
                 (A) (A) (A) (A) (A) (A) (A) (A) (A) (A) (A) (A)
                 (A) (A) (A) (A) (A) (A) (A) (A) (A) (A) (A) (A)
                 (A) (A) (A) (A) (A) (A) (A) (A) (A) (A) (A) (A)
                 (A) (A) (A) (A) (A) (A) (A) (A) (A) (A) (A) (A)
                 (A) (A) (A) (A) (A) (A) (A) (A) (A) (A) (A) (A)
                 (A) (A) (A) (A) (A) (A) (A) (A) (A) (A) (A) (A)
                 (A) (A) (A) (A) (A) (A) (A) (A) (A) (A) (A) (A)
                 (A) (A) (A) (A) (A) (A) (A) (A) (A) (A) (A) (A)
                 (A) (A) (A) (A) (A) (A) (A) (A) (A) (A) (A) (A)
                 (A) (A) (A) (A) (A) (A) (A) (A) (A) (A) (A) (A)
                 (A) (A) (A) (A) (A) (A) (A) (A) (A) (A) (A) (A)
                 (A) (A) (A) (A) (A) (A) (A) (A) (A) (A) (A) (A)
                 (A) (A) (A) (A) (A) (A) (A) (A) (A) (A) (A) (A)
                 (A) (A) (A) (A) (A) (A) (A) (A) (A) (A) (A) (A)
                 (A) (A) (A) (A) (A) (A) (A) (A) (A) (A) (A) (A)
                 (A) (A) (A) (A) (A) (A) (A) (A) (A) (A) (A) (A)
                 (A) (A) (A) (A) (A) (A) (A) (A) (A) (A) (A) (A)
                 (A) (A) (A) (A) (A) (A) (A) (A) (A) (A) (A) (A)
                 (A) (A) (A) (A) (A) (A) (A) (A) (A) (A) (A) (A)
                 (A) (A) (A) (A) (A) (A) (A) (A) (A) (A) (A) (A)
                 (A) (A) (A) (A) (A) (A) (A) (A) (A) (A) (A) (A)
                 (A) (A) (A) (A) (A) (A) (A) (A) (A) (A) (A) (A)
                 (A) (A) (A) (A) (A) (A) (A) (A) (A) (A) (A) (A)
                 (A) (A) (A) (A) (A) (A) (A) (A) (A) (A) (A) (A)
                 (A) (A) (A) (A) (A) (A) (A) (A) (A) (A) (A) (A)
                 (A) (A) (A) (A) (A) (A) (A) (A) (A) (A) (A) (A)
                 (A) (A) (A) (A) (A) (A) (A) (A) (A) (A) (A) (A)
                 (A) (A) (A) (A) (A) (A) (A) (A) (A) (A)
 Beta  Orbitals:
       Occupied  (A) (A) (A) (A) (A) (A) (A) (A) (A) (A) (A) (A)
                 (A) (A) (A) (A) (A) (A) (A) (A) (A) (A) (A) (A)
                 (A) (A) (A) (A) (A) (A) (A) (A) (A) (A) (A) (A)
                 (A) (A) (A) (A) (A) (A) (A) (A) (A) (A) (A) (A)
                 (A) (A) (A) (A) (A) (A) (A) (A) (A) (A) (A) (A)
                 (A) (A) (A) (A) (A) (A) (A) (A) (A) (A) (A) (A)
                 (A) (A) (A) (A) (A) (A) (A) (A) (A) (A) (A) (A)
                 (A) (A) (A) (A) (A) (A) (A) (A) (A) (A) (A) (A)
                 (A) (A) (A) (A) (A) (A) (A) (A) (A) (A) (A) (A)
                 (A) (A) (A) (A) (A) (A) (A) (A) (A) (A) (A) (A)
                 (A) (A) (A) (A) (A) (A) (A) (A) (A) (A) (A) (A)
                 (A) (A) (A) (A) (A) (A) (A)
       Virtual   (A) (A) (A) (A) (A) (A) (A) (A) (A) (A) (A) (A)
                 (A) (A) (A) (A) (A) (A) (A) (A) (A) (A) (A) (A)
                 (A) (A) (A) (A) (A) (A) (A) (A) (A) (A) (A) (A)
                 (A) (A) (A) (A) (A) (A) (A) (A) (A) (A) (A) (A)
                 (A) (A) (A) (A) (A) (A) (A) (A) (A) (A) (A) (A)
                 (A) (A) (A) (A) (A) (A) (A) (A) (A) (A) (A) (A)
                 (A) (A) (A) (A) (A) (A) (A) (A) (A) (A) (A) (A)
                 (A) (A) (A) (A) (A) (A) (A) (A) (A) (A) (A) (A)
                 (A) (A) (A) (A) (A) (A) (A) (A) (A) (A) (A) (A)
                 (A) (A) (A) (A) (A) (A) (A) (A) (A) (A) (A) (A)
                 (A) (A) (A) (A) (A) (A) (A) (A) (A) (A) (A) (A)
                 (A) (A) (A) (A) (A) (A) (A) (A) (A) (A) (A) (A)
                 (A) (A) (A) (A) (A) (A) (A) (A) (A) (A) (A) (A)
                 (A) (A) (A) (A) (A) (A) (A) (A) (A) (A) (A) (A)
                 (A) (A) (A) (A) (A) (A) (A) (A) (A) (A) (A) (A)
                 (A) (A) (A) (A) (A) (A) (A) (A) (A) (A) (A) (A)
                 (A) (A) (A) (A) (A) (A) (A) (A) (A) (A) (A) (A)
                 (A) (A) (A) (A) (A) (A) (A) (A) (A) (A) (A) (A)
                 (A) (A) (A) (A) (A) (A) (A) (A) (A) (A) (A) (A)
                 (A) (A) (A) (A) (A) (A) (A) (A) (A) (A) (A) (A)
                 (A) (A) (A) (A) (A) (A) (A) (A) (A) (A) (A) (A)
                 (A) (A) (A) (A) (A) (A) (A) (A) (A) (A) (A) (A)
                 (A) (A) (A) (A) (A) (A) (A) (A) (A) (A) (A) (A)
                 (A) (A) (A) (A) (A) (A) (A) (A) (A) (A) (A) (A)
                 (A) (A) (A) (A) (A) (A) (A) (A) (A) (A) (A) (A)
                 (A) (A) (A) (A) (A) (A) (A) (A) (A) (A) (A) (A)
                 (A) (A) (A) (A) (A) (A) (A) (A) (A) (A) (A) (A)
                 (A) (A) (A) (A) (A) (A) (A) (A) (A) (A) (A) (A)
                 (A) (A) (A) (A) (A) (A) (A) (A) (A) (A) (A) (A)
                 (A) (A) (A) (A) (A) (A) (A) (A) (A) (A) (A) (A)
                 (A) (A) (A) (A) (A) (A) (A) (A) (A) (A) (A) (A)
                 (A) (A) (A) (A) (A) (A) (A) (A) (A) (A) (A) (A)
                 (A) (A) (A) (A) (A) (A) (A) (A) (A) (A) (A) (A)
                 (A) (A) (A) (A) (A) (A) (A) (A) (A) (A) (A) (A)
                 (A) (A) (A) (A) (A) (A) (A) (A) (A) (A) (A) (A)
                 (A) (A) (A) (A) (A) (A) (A) (A) (A) (A) (A) (A)
                 (A) (A) (A) (A) (A) (A) (A) (A) (A) (A) (A) (A)
                 (A) (A) (A) (A) (A) (A) (A) (A) (A) (A) (A) (A)
                 (A) (A) (A) (A) (A) (A) (A) (A) (A) (A) (A) (A)
                 (A) (A) (A) (A) (A) (A) (A) (A) (A) (A) (A) (A)
                 (A) (A) (A) (A) (A) (A) (A) (A) (A) (A) (A) (A)
                 (A) (A) (A) (A) (A) (A) (A) (A) (A) (A) (A) (A)
                 (A) (A) (A) (A) (A) (A) (A) (A) (A) (A) (A) (A)
                 (A) (A) (A) (A) (A) (A) (A) (A) (A) (A) (A) (A)
                 (A) (A) (A) (A) (A) (A) (A) (A) (A) (A) (A) (A)
                 (A) (A) (A) (A) (A) (A) (A) (A) (A) (A) (A) (A)
                 (A) (A) (A) (A) (A) (A) (A) (A) (A) (A) (A) (A)
                 (A) (A) (A) (A) (A) (A) (A) (A) (A) (A) (A) (A)
                 (A) (A) (A) (A) (A) (A) (A) (A) (A) (A) (A) (A)
                 (A) (A) (A) (A) (A) (A) (A) (A) (A) (A) (A) (A)
                 (A) (A) (A) (A) (A) (A) (A) (A) (A) (A) (A) (A)
                 (A) (A) (A) (A) (A) (A) (A) (A) (A) (A) (A) (A)
                 (A) (A) (A) (A) (A) (A) (A) (A) (A) (A) (A) (A)
                 (A) (A) (A) (A) (A) (A) (A) (A) (A) (A) (A) (A)
                 (A) (A) (A) (A) (A) (A) (A) (A) (A) (A) (A) (A)
                 (A) (A) (A) (A) (A) (A) (A) (A) (A) (A) (A) (A)
                 (A) (A) (A) (A) (A) (A) (A) (A) (A) (A) (A) (A)
                 (A) (A) (A) (A) (A) (A) (A) (A) (A) (A) (A) (A)
                 (A) (A) (A) (A) (A) (A) (A) (A) (A) (A) (A) (A)
                 (A) (A) (A) (A) (A) (A) (A) (A) (A) (A) (A) (A)
                 (A) (A) (A) (A) (A) (A) (A) (A) (A) (A) (A) (A)
                 (A) (A) (A) (A) (A) (A) (A) (A) (A) (A) (A) (A)
                 (A) (A) (A) (A) (A) (A) (A) (A) (A) (A) (A) (A)
                 (A) (A) (A) (A) (A) (A) (A) (A) (A) (A) (A) (A)
                 (A) (A) (A) (A) (A) (A) (A) (A) (A) (A) (A) (A)
                 (A) (A) (A) (A) (A) (A) (A) (A) (A) (A) (A) (A)
                 (A) (A) (A) (A) (A) (A) (A) (A) (A) (A) (A) (A)
                 (A) (A) (A) (A) (A) (A) (A) (A) (A) (A) (A) (A)
                 (A) (A) (A) (A) (A) (A) (A) (A) (A) (A) (A) (A)
                 (A) (A) (A) (A) (A) (A) (A) (A) (A) (A) (A) (A)
                 (A) (A) (A) (A) (A) (A) (A) (A) (A) (A) (A) (A)
                 (A) (A) (A) (A) (A) (A) (A) (A) (A) (A) (A) (A)
                 (A) (A) (A) (A) (A) (A) (A) (A) (A) (A) (A) (A)
                 (A) (A) (A) (A) (A) (A) (A) (A) (A) (A) (A) (A)
                 (A) (A) (A) (A) (A) (A) (A) (A) (A) (A) (A) (A)
                 (A) (A) (A) (A) (A) (A) (A) (A) (A) (A) (A) (A)
                 (A) (A) (A) (A) (A) (A) (A) (A) (A) (A) (A) (A)
                 (A) (A) (A) (A) (A) (A) (A) (A) (A) (A) (A) (A)
                 (A) (A) (A) (A) (A) (A) (A) (A) (A) (A) (A) (A)
                 (A) (A) (A) (A) (A) (A) (A) (A) (A) (A) (A) (A)
                 (A) (A) (A) (A) (A) (A) (A) (A) (A) (A) (A) (A)
                 (A) (A) (A) (A) (A) (A) (A) (A) (A) (A) (A) (A)
                 (A) (A) (A) (A) (A) (A) (A) (A) (A) (A) (A) (A)
                 (A) (A) (A) (A) (A) (A) (A) (A) (A) (A) (A) (A)
                 (A) (A) (A) (A) (A) (A) (A) (A) (A) (A) (A) (A)
                 (A) (A) (A) (A) (A) (A) (A) (A) (A) (A) (A) (A)
                 (A) (A) (A) (A) (A) (A) (A) (A) (A) (A) (A) (A)
                 (A) (A) (A) (A) (A) (A) (A) (A) (A) (A) (A) (A)
                 (A) (A) (A) (A) (A) (A) (A) (A) (A) (A) (A) (A)
                 (A) (A) (A) (A) (A) (A) (A) (A) (A) (A) (A) (A)
                 (A) (A) (A) (A) (A) (A) (A) (A) (A) (A) (A) (A)
                 (A) (A) (A) (A) (A) (A) (A) (A) (A) (A) (A) (A)
                 (A) (A) (A) (A) (A) (A) (A) (A) (A) (A) (A) (A)
                 (A) (A) (A) (A) (A) (A) (A) (A) (A) (A) (A) (A)
                 (A) (A) (A) (A) (A) (A) (A) (A) (A) (A) (A) (A)
                 (A) (A) (A) (A) (A) (A) (A) (A) (A) (A) (A) (A)
                 (A) (A) (A) (A) (A) (A) (A) (A) (A) (A) (A) (A)
                 (A) (A) (A) (A) (A) (A) (A) (A) (A) (A) (A) (A)
                 (A) (A) (A) (A) (A) (A) (A) (A) (A) (A) (A) (A)
                 (A) (A) (A) (A) (A) (A) (A) (A) (A) (A) (A) (A)
                 (A) (A) (A) (A) (A) (A) (A) (A) (A) (A) (A) (A)
                 (A) (A) (A) (A) (A) (A) (A) (A) (A) (A) (A) (A)
                 (A) (A) (A) (A) (A) (A) (A) (A) (A) (A) (A) (A)
                 (A) (A) (A) (A) (A) (A) (A) (A) (A) (A) (A) (A)
                 (A) (A) (A) (A) (A) (A) (A) (A) (A) (A) (A) (A)
                 (A) (A) (A) (A) (A) (A) (A) (A) (A) (A) (A) (A)
                 (A) (A) (A) (A) (A) (A) (A) (A) (A) (A) (A) (A)
                 (A) (A) (A) (A) (A) (A) (A) (A) (A) (A) (A) (A)
                 (A) (A) (A) (A) (A) (A) (A) (A) (A) (A) (A) (A)
                 (A) (A) (A) (A) (A) (A) (A) (A) (A) (A) (A) (A)
                 (A) (A) (A) (A) (A) (A) (A) (A) (A) (A) (A) (A)
                 (A) (A) (A) (A) (A) (A) (A) (A) (A) (A) (A) (A)
                 (A) (A) (A) (A) (A) (A) (A) (A) (A) (A) (A) (A)
                 (A) (A) (A) (A) (A) (A) (A) (A) (A) (A) (A)
 The electronic state is 2-A.
 Alpha  occ. eigenvalues --  -25.20196 -25.20138 -25.20097 -25.19880 -19.66821
 Alpha  occ. eigenvalues --  -14.93842 -14.83316 -14.80228 -14.78945 -14.78869
 Alpha  occ. eigenvalues --  -14.77411 -14.76813 -10.63969 -10.61393 -10.60503
 Alpha  occ. eigenvalues --  -10.59424 -10.59218 -10.59144 -10.58657 -10.58327
 Alpha  occ. eigenvalues --  -10.57757 -10.57365 -10.56342 -10.55492 -10.55483
 Alpha  occ. eigenvalues --  -10.55460 -10.55219 -10.55190 -10.55010 -10.54983
 Alpha  occ. eigenvalues --  -10.54938 -10.54895 -10.54784 -10.54577 -10.53861
 Alpha  occ. eigenvalues --  -10.53614 -10.53213 -10.52745  -7.12885  -7.12560
 Alpha  occ. eigenvalues --   -1.32057  -1.31942  -1.28805  -1.28669  -1.26461
 Alpha  occ. eigenvalues --   -1.19813  -1.15347  -1.08839  -1.07949  -1.07701
 Alpha  occ. eigenvalues --   -1.01159  -0.96988  -0.96644  -0.92288  -0.90611
 Alpha  occ. eigenvalues --   -0.88643  -0.87942  -0.86895  -0.85275  -0.84963
 Alpha  occ. eigenvalues --   -0.84539  -0.83225  -0.80254  -0.77668  -0.75939
 Alpha  occ. eigenvalues --   -0.73616  -0.71803  -0.70989  -0.70172  -0.68879
 Alpha  occ. eigenvalues --   -0.67570  -0.66761  -0.65840  -0.65507  -0.64463
 Alpha  occ. eigenvalues --   -0.62922  -0.62766  -0.61675  -0.61206  -0.60853
 Alpha  occ. eigenvalues --   -0.60094  -0.59816  -0.59710  -0.58862  -0.58315
 Alpha  occ. eigenvalues --   -0.58019  -0.57567  -0.56557  -0.55852  -0.55648
 Alpha  occ. eigenvalues --   -0.54995  -0.54204  -0.53875  -0.53192  -0.52884
 Alpha  occ. eigenvalues --   -0.52704  -0.52046  -0.51772  -0.51309  -0.50802
 Alpha  occ. eigenvalues --   -0.50463  -0.49972  -0.49573  -0.48959  -0.48414
 Alpha  occ. eigenvalues --   -0.48172  -0.48095  -0.47887  -0.47750  -0.46637
 Alpha  occ. eigenvalues --   -0.46554  -0.46345  -0.46127  -0.46069  -0.45470
 Alpha  occ. eigenvalues --   -0.45262  -0.45029  -0.44182  -0.43578  -0.43463
 Alpha  occ. eigenvalues --   -0.42976  -0.42563  -0.42148  -0.41702  -0.41436
 Alpha  occ. eigenvalues --   -0.40387  -0.39679  -0.39428  -0.38324  -0.36990
 Alpha  occ. eigenvalues --   -0.35128  -0.31998  -0.31975  -0.31949  -0.31131
 Alpha  occ. eigenvalues --   -0.29941  -0.29837  -0.28677  -0.24680  -0.19810
 Alpha virt. eigenvalues --   -0.02405   0.00452   0.00873   0.01192   0.03002
 Alpha virt. eigenvalues --    0.04648   0.05310   0.05574   0.06784   0.07243
 Alpha virt. eigenvalues --    0.07922   0.08475   0.08779   0.08953   0.09463
 Alpha virt. eigenvalues --    0.09943   0.10469   0.10762   0.11162   0.11466
 Alpha virt. eigenvalues --    0.11654   0.11717   0.12053   0.12230   0.12561
 Alpha virt. eigenvalues --    0.13253   0.13464   0.13644   0.13924   0.14119
 Alpha virt. eigenvalues --    0.14909   0.14999   0.15120   0.15401   0.15718
 Alpha virt. eigenvalues --    0.16907   0.17365   0.17642   0.18196   0.18418
 Alpha virt. eigenvalues --    0.18699   0.18992   0.19460   0.19583   0.19704
 Alpha virt. eigenvalues --    0.20459   0.20750   0.20897   0.21142   0.21377
 Alpha virt. eigenvalues --    0.21722   0.21939   0.22492   0.23064   0.23170
 Alpha virt. eigenvalues --    0.23699   0.23863   0.23953   0.24338   0.24624
 Alpha virt. eigenvalues --    0.24702   0.24755   0.25471   0.25530   0.25885
 Alpha virt. eigenvalues --    0.26064   0.26562   0.26649   0.27436   0.27527
 Alpha virt. eigenvalues --    0.27670   0.28057   0.28374   0.28687   0.28727
 Alpha virt. eigenvalues --    0.29041   0.29602   0.29867   0.30069   0.30526
 Alpha virt. eigenvalues --    0.30644   0.31074   0.31683   0.31853   0.31977
 Alpha virt. eigenvalues --    0.32227   0.32974   0.33188   0.33385   0.33615
 Alpha virt. eigenvalues --    0.33839   0.34102   0.34415   0.34623   0.34930
 Alpha virt. eigenvalues --    0.35012   0.35292   0.35591   0.35706   0.36126
 Alpha virt. eigenvalues --    0.36595   0.36893   0.37028   0.37593   0.37703
 Alpha virt. eigenvalues --    0.37805   0.38008   0.38340   0.38520   0.38780
 Alpha virt. eigenvalues --    0.38987   0.39154   0.39598   0.39686   0.39877
 Alpha virt. eigenvalues --    0.40239   0.40311   0.40768   0.40805   0.41365
 Alpha virt. eigenvalues --    0.41419   0.41643   0.41796   0.41932   0.42119
 Alpha virt. eigenvalues --    0.42683   0.42764   0.43012   0.43169   0.43536
 Alpha virt. eigenvalues --    0.43704   0.44233   0.44458   0.44703   0.44894
 Alpha virt. eigenvalues --    0.45091   0.45301   0.45755   0.45843   0.46053
 Alpha virt. eigenvalues --    0.46304   0.46541   0.46712   0.46873   0.47315
 Alpha virt. eigenvalues --    0.47481   0.47792   0.48326   0.48328   0.48637
 Alpha virt. eigenvalues --    0.48916   0.49091   0.49210   0.49684   0.49888
 Alpha virt. eigenvalues --    0.50407   0.50680   0.50979   0.51296   0.51721
 Alpha virt. eigenvalues --    0.52394   0.52570   0.53086   0.53256   0.53686
 Alpha virt. eigenvalues --    0.53970   0.54356   0.54396   0.54441   0.55053
 Alpha virt. eigenvalues --    0.55227   0.55639   0.56221   0.56736   0.57104
 Alpha virt. eigenvalues --    0.57586   0.57913   0.58215   0.58743   0.59055
 Alpha virt. eigenvalues --    0.59313   0.59435   0.60152   0.60214   0.61222
 Alpha virt. eigenvalues --    0.61342   0.61670   0.62014   0.62403   0.63037
 Alpha virt. eigenvalues --    0.63099   0.63232   0.64005   0.64202   0.64558
 Alpha virt. eigenvalues --    0.64842   0.65071   0.65162   0.65856   0.66186
 Alpha virt. eigenvalues --    0.66357   0.66433   0.66809   0.67306   0.67544
 Alpha virt. eigenvalues --    0.67734   0.68516   0.68645   0.69126   0.69536
 Alpha virt. eigenvalues --    0.69825   0.69991   0.70141   0.70423   0.70836
 Alpha virt. eigenvalues --    0.70933   0.71290   0.71683   0.71870   0.72261
 Alpha virt. eigenvalues --    0.72496   0.72814   0.72959   0.73476   0.73708
 Alpha virt. eigenvalues --    0.74080   0.74499   0.74755   0.75275   0.75745
 Alpha virt. eigenvalues --    0.75823   0.75976   0.76400   0.76901   0.77118
 Alpha virt. eigenvalues --    0.77441   0.77740   0.77901   0.78325   0.78655
 Alpha virt. eigenvalues --    0.78872   0.79194   0.79355   0.79947   0.80041
 Alpha virt. eigenvalues --    0.80306   0.80535   0.81243   0.81680   0.82065
 Alpha virt. eigenvalues --    0.82431   0.82935   0.82968   0.83300   0.83368
 Alpha virt. eigenvalues --    0.83789   0.83916   0.84280   0.84483   0.85066
 Alpha virt. eigenvalues --    0.85188   0.85708   0.85998   0.86181   0.86760
 Alpha virt. eigenvalues --    0.87172   0.87462   0.87502   0.88074   0.88845
 Alpha virt. eigenvalues --    0.89374   0.89559   0.89872   0.90008   0.90603
 Alpha virt. eigenvalues --    0.90777   0.91192   0.91664   0.92192   0.92426
 Alpha virt. eigenvalues --    0.92926   0.93206   0.93678   0.93990   0.94384
 Alpha virt. eigenvalues --    0.94568   0.94935   0.95507   0.95669   0.96127
 Alpha virt. eigenvalues --    0.96517   0.96887   0.97198   0.97793   0.97917
 Alpha virt. eigenvalues --    0.98396   0.98703   0.98918   0.99424   1.00210
 Alpha virt. eigenvalues --    1.00411   1.00634   1.00905   1.01212   1.01600
 Alpha virt. eigenvalues --    1.01768   1.02172   1.02549   1.02926   1.02985
 Alpha virt. eigenvalues --    1.03551   1.03703   1.04256   1.04644   1.05426
 Alpha virt. eigenvalues --    1.05587   1.06051   1.06458   1.06593   1.06942
 Alpha virt. eigenvalues --    1.07426   1.07836   1.08259   1.08940   1.09559
 Alpha virt. eigenvalues --    1.09920   1.10050   1.10472   1.10536   1.10952
 Alpha virt. eigenvalues --    1.11247   1.11594   1.12244   1.12579   1.13107
 Alpha virt. eigenvalues --    1.13307   1.13809   1.14167   1.14550   1.14871
 Alpha virt. eigenvalues --    1.15110   1.15124   1.15771   1.16168   1.16528
 Alpha virt. eigenvalues --    1.16785   1.17595   1.17812   1.18434   1.18748
 Alpha virt. eigenvalues --    1.18910   1.19583   1.20160   1.20556   1.21414
 Alpha virt. eigenvalues --    1.21780   1.22022   1.22758   1.22982   1.23054
 Alpha virt. eigenvalues --    1.23521   1.23645   1.24189   1.24648   1.24803
 Alpha virt. eigenvalues --    1.25948   1.26402   1.26938   1.27246   1.27488
 Alpha virt. eigenvalues --    1.27967   1.28147   1.28828   1.29289   1.29402
 Alpha virt. eigenvalues --    1.29850   1.30115   1.30456   1.31453   1.31541
 Alpha virt. eigenvalues --    1.31603   1.32238   1.33058   1.33418   1.34044
 Alpha virt. eigenvalues --    1.34609   1.34707   1.35453   1.35783   1.35960
 Alpha virt. eigenvalues --    1.36227   1.36853   1.37208   1.37733   1.37887
 Alpha virt. eigenvalues --    1.38875   1.39355   1.39537   1.40025   1.40400
 Alpha virt. eigenvalues --    1.40869   1.41156   1.41609   1.41899   1.42026
 Alpha virt. eigenvalues --    1.42326   1.42844   1.43598   1.43879   1.44047
 Alpha virt. eigenvalues --    1.44766   1.45103   1.45825   1.46266   1.46719
 Alpha virt. eigenvalues --    1.46806   1.47229   1.47905   1.48483   1.49263
 Alpha virt. eigenvalues --    1.49424   1.49476   1.49655   1.50083   1.50340
 Alpha virt. eigenvalues --    1.50975   1.51278   1.51487   1.51757   1.51872
 Alpha virt. eigenvalues --    1.52358   1.52555   1.53075   1.53339   1.53732
 Alpha virt. eigenvalues --    1.54060   1.54818   1.55408   1.55857   1.56175
 Alpha virt. eigenvalues --    1.56358   1.56802   1.57094   1.57464   1.58011
 Alpha virt. eigenvalues --    1.58478   1.58793   1.59170   1.59283   1.59499
 Alpha virt. eigenvalues --    1.59777   1.60668   1.61144   1.61480   1.61851
 Alpha virt. eigenvalues --    1.62184   1.62282   1.62963   1.63679   1.64230
 Alpha virt. eigenvalues --    1.64875   1.65083   1.65335   1.65726   1.65946
 Alpha virt. eigenvalues --    1.66695   1.66743   1.67684   1.67886   1.68289
 Alpha virt. eigenvalues --    1.68505   1.69523   1.70029   1.70535   1.70894
 Alpha virt. eigenvalues --    1.71290   1.71678   1.72123   1.72449   1.73147
 Alpha virt. eigenvalues --    1.73347   1.73723   1.74138   1.74823   1.75358
 Alpha virt. eigenvalues --    1.76111   1.77057   1.77167   1.77699   1.78269
 Alpha virt. eigenvalues --    1.78482   1.79143   1.79350   1.79908   1.80533
 Alpha virt. eigenvalues --    1.81021   1.81559   1.82196   1.82254   1.83091
 Alpha virt. eigenvalues --    1.83923   1.84547   1.85038   1.85519   1.85853
 Alpha virt. eigenvalues --    1.86590   1.86930   1.87823   1.88106   1.88378
 Alpha virt. eigenvalues --    1.88863   1.89225   1.89970   1.90282   1.91072
 Alpha virt. eigenvalues --    1.91401   1.91546   1.92248   1.92575   1.92930
 Alpha virt. eigenvalues --    1.94495   1.95365   1.95613   1.96439   1.97169
 Alpha virt. eigenvalues --    1.97537   1.97761   1.98278   1.99341   1.99644
 Alpha virt. eigenvalues --    1.99951   2.00112   2.00886   2.01426   2.01754
 Alpha virt. eigenvalues --    2.02063   2.02400   2.02606   2.03043   2.04234
 Alpha virt. eigenvalues --    2.04684   2.05041   2.05310   2.06075   2.06797
 Alpha virt. eigenvalues --    2.07306   2.08115   2.08329   2.09010   2.09820
 Alpha virt. eigenvalues --    2.10296   2.10953   2.11077   2.11779   2.12341
 Alpha virt. eigenvalues --    2.12598   2.12952   2.14195   2.14930   2.15476
 Alpha virt. eigenvalues --    2.15680   2.16599   2.17168   2.17685   2.18161
 Alpha virt. eigenvalues --    2.18636   2.19799   2.20501   2.20850   2.21552
 Alpha virt. eigenvalues --    2.21896   2.22398   2.23318   2.23475   2.23709
 Alpha virt. eigenvalues --    2.24282   2.25736   2.26518   2.26859   2.27596
 Alpha virt. eigenvalues --    2.28711   2.28828   2.29433   2.29744   2.30750
 Alpha virt. eigenvalues --    2.31382   2.31556   2.32547   2.32821   2.33861
 Alpha virt. eigenvalues --    2.34343   2.34758   2.34885   2.35171   2.35349
 Alpha virt. eigenvalues --    2.36471   2.36849   2.37207   2.37998   2.38223
 Alpha virt. eigenvalues --    2.38774   2.39067   2.39584   2.40311   2.41362
 Alpha virt. eigenvalues --    2.42018   2.42457   2.42850   2.43157   2.43800
 Alpha virt. eigenvalues --    2.43878   2.44940   2.45356   2.45488   2.46206
 Alpha virt. eigenvalues --    2.46761   2.47224   2.47713   2.48858   2.49631
 Alpha virt. eigenvalues --    2.50504   2.51569   2.51981   2.53073   2.53409
 Alpha virt. eigenvalues --    2.54981   2.55688   2.56495   2.56887   2.57738
 Alpha virt. eigenvalues --    2.58161   2.59049   2.60246   2.60703   2.61269
 Alpha virt. eigenvalues --    2.61743   2.61920   2.62709   2.63615   2.64313
 Alpha virt. eigenvalues --    2.64357   2.64732   2.65015   2.66271   2.66474
 Alpha virt. eigenvalues --    2.66820   2.67184   2.68252   2.68310   2.68818
 Alpha virt. eigenvalues --    2.69669   2.69866   2.70368   2.70544   2.70854
 Alpha virt. eigenvalues --    2.71203   2.71906   2.72192   2.72722   2.73286
 Alpha virt. eigenvalues --    2.73699   2.74174   2.74601   2.75188   2.75288
 Alpha virt. eigenvalues --    2.75876   2.76259   2.76440   2.76912   2.77335
 Alpha virt. eigenvalues --    2.77666   2.78094   2.78780   2.79068   2.79423
 Alpha virt. eigenvalues --    2.80138   2.80221   2.80917   2.81241   2.81520
 Alpha virt. eigenvalues --    2.82536   2.82904   2.83242   2.83628   2.83653
 Alpha virt. eigenvalues --    2.84280   2.84471   2.84840   2.84930   2.85830
 Alpha virt. eigenvalues --    2.86087   2.87280   2.87831   2.88364   2.88754
 Alpha virt. eigenvalues --    2.89203   2.89450   2.89606   2.90447   2.90652
 Alpha virt. eigenvalues --    2.91101   2.91489   2.92005   2.92184   2.92596
 Alpha virt. eigenvalues --    2.93164   2.93285   2.93742   2.93879   2.93907
 Alpha virt. eigenvalues --    2.94600   2.94671   2.95146   2.95537   2.95952
 Alpha virt. eigenvalues --    2.96287   2.96716   2.96964   2.97310   2.97647
 Alpha virt. eigenvalues --    2.97802   2.97935   2.98276   2.99162   2.99479
 Alpha virt. eigenvalues --    2.99900   3.00145   3.00579   3.01026   3.01399
 Alpha virt. eigenvalues --    3.01878   3.02424   3.02479   3.02574   3.02820
 Alpha virt. eigenvalues --    3.02938   3.03421   3.03793   3.04072   3.04317
 Alpha virt. eigenvalues --    3.04773   3.05210   3.05641   3.06042   3.06369
 Alpha virt. eigenvalues --    3.06693   3.06803   3.06995   3.07492   3.07905
 Alpha virt. eigenvalues --    3.08249   3.08769   3.09112   3.09142   3.09603
 Alpha virt. eigenvalues --    3.09897   3.10129   3.10517   3.11057   3.11502
 Alpha virt. eigenvalues --    3.11954   3.12098   3.12567   3.12969   3.13882
 Alpha virt. eigenvalues --    3.13951   3.14444   3.15040   3.15232   3.15608
 Alpha virt. eigenvalues --    3.16105   3.16315   3.16561   3.16720   3.17245
 Alpha virt. eigenvalues --    3.17468   3.17656   3.18077   3.18316   3.18482
 Alpha virt. eigenvalues --    3.18890   3.19454   3.19743   3.20207   3.20522
 Alpha virt. eigenvalues --    3.20882   3.21025   3.21606   3.22054   3.22479
 Alpha virt. eigenvalues --    3.22606   3.23249   3.23600   3.23808   3.24302
 Alpha virt. eigenvalues --    3.24364   3.24619   3.25281   3.25575   3.26206
 Alpha virt. eigenvalues --    3.26461   3.26679   3.27190   3.27347   3.27988
 Alpha virt. eigenvalues --    3.28142   3.28563   3.28882   3.29639   3.29977
 Alpha virt. eigenvalues --    3.30822   3.31167   3.31411   3.31602   3.31747
 Alpha virt. eigenvalues --    3.32656   3.33491   3.33817   3.34357   3.34559
 Alpha virt. eigenvalues --    3.35271   3.35542   3.35931   3.36151   3.36524
 Alpha virt. eigenvalues --    3.36653   3.37109   3.37321   3.37769   3.38001
 Alpha virt. eigenvalues --    3.38326   3.38547   3.38858   3.39538   3.39792
 Alpha virt. eigenvalues --    3.39890   3.40190   3.40802   3.40953   3.41744
 Alpha virt. eigenvalues --    3.42171   3.42836   3.43643   3.44463   3.44623
 Alpha virt. eigenvalues --    3.45094   3.45789   3.46020   3.47014   3.47691
 Alpha virt. eigenvalues --    3.48103   3.48443   3.48842   3.49096   3.49685
 Alpha virt. eigenvalues --    3.50063   3.50303   3.50586   3.50845   3.51223
 Alpha virt. eigenvalues --    3.51412   3.51735   3.52136   3.52569   3.52985
 Alpha virt. eigenvalues --    3.53201   3.53851   3.54227   3.54680   3.55122
 Alpha virt. eigenvalues --    3.55274   3.55939   3.56053   3.56568   3.57010
 Alpha virt. eigenvalues --    3.57255   3.57640   3.58220   3.59252   3.59651
 Alpha virt. eigenvalues --    3.60353   3.60565   3.60907   3.61738   3.62367
 Alpha virt. eigenvalues --    3.62882   3.63213   3.63829   3.64057   3.64267
 Alpha virt. eigenvalues --    3.64776   3.64978   3.65202   3.65941   3.66436
 Alpha virt. eigenvalues --    3.66624   3.66970   3.67235   3.67899   3.68025
 Alpha virt. eigenvalues --    3.68313   3.68872   3.69937   3.70194   3.71001
 Alpha virt. eigenvalues --    3.71034   3.71268   3.71504   3.72111   3.72789
 Alpha virt. eigenvalues --    3.73264   3.73560   3.73897   3.74147   3.75131
 Alpha virt. eigenvalues --    3.75555   3.76071   3.76310   3.76421   3.76700
 Alpha virt. eigenvalues --    3.77210   3.77628   3.77808   3.77889   3.78322
 Alpha virt. eigenvalues --    3.78542   3.78940   3.79139   3.79722   3.79938
 Alpha virt. eigenvalues --    3.80248   3.80880   3.81380   3.81829   3.82264
 Alpha virt. eigenvalues --    3.82813   3.83075   3.83339   3.83602   3.84017
 Alpha virt. eigenvalues --    3.84369   3.84991   3.85430   3.85929   3.86506
 Alpha virt. eigenvalues --    3.86845   3.88510   3.88700   3.89331   3.89672
 Alpha virt. eigenvalues --    3.90909   3.91156   3.91396   3.91878   3.91960
 Alpha virt. eigenvalues --    3.92368   3.93310   3.93401   3.94066   3.94774
 Alpha virt. eigenvalues --    3.95338   3.95617   3.96429   3.96692   3.97242
 Alpha virt. eigenvalues --    3.97495   3.97881   3.98629   3.99003   3.99381
 Alpha virt. eigenvalues --    3.99808   4.00164   4.00477   4.01044   4.01631
 Alpha virt. eigenvalues --    4.02289   4.02632   4.02997   4.03734   4.03982
[...]
    31   Atom       -0.001355      0.000937     -0.001508
    32   Atom        0.000288     -0.000273     -0.000486
    33   Atom       -0.007013     -0.001472      0.000877
    34   Atom       -0.005197      0.017635     -0.002645
    35   Atom       -0.001568      0.079896     -0.010868
    36   Atom        0.003709     -0.007615     -0.010572
    37   Atom       -0.002362     -0.000060      0.011757
    38   Atom        0.000367      0.016758      0.020509
    39   Atom       -0.000157     -0.000546     -0.000438
    40   Atom        0.003700      0.015181      0.045609
    41   Atom        0.009706      0.002254      0.001040
    42   Atom        0.000741     -0.000245      0.000731
    43   Atom        0.003335     -0.000051     -0.000153
    44   Atom       -0.007669     -0.000176      0.000087
    45   Atom       -0.001215     -0.000044      0.000022
    46   Atom       -0.000162     -0.000018     -0.000002
    47   Atom        0.000376     -0.000133     -0.000169
    48   Atom        0.000386      0.000132      0.000197
    49   Atom        0.000095     -0.000082     -0.000017
    50   Atom        0.000139     -0.000000      0.000003
    51   Atom        0.000454     -0.000027     -0.000006
    52   Atom        0.000548      0.000009      0.000049
    53   Atom        0.001094     -0.000020      0.000041
    54   Atom        0.001564     -0.000003     -0.000017
    55   Atom       -0.001716     -0.000108      0.000117
    56   Atom       -0.001206     -0.000089      0.000048
    57   Atom       -0.006145      0.000016      0.001099
    58   Atom        0.000870     -0.000360     -0.000912
    59   Atom       -0.007557      0.002123     -0.000770
 --------------------------------------------------------


 ---------------------------------------------------------------------------------
              Anisotropic Spin Dipole Couplings in Principal Axis System
 ---------------------------------------------------------------------------------

       Atom             a.u.   MegaHertz   Gauss  10(-4) cm-1        Axes

              Baa    -0.0105    -5.249    -1.873    -1.751 -0.0793 -0.6824  0.7267
     1 F(19)  Bbb    -0.0088    -4.417    -1.576    -1.473 -0.5901  0.6196  0.5175
              Bcc     0.0192     9.666     3.449     3.224  0.8034  0.3878  0.4518
 
              Baa    -0.0026    -0.437    -0.156    -0.146  0.0645 -0.1085  0.9920
     2 B(11)  Bbb    -0.0011    -0.190    -0.068    -0.063  0.0568  0.9929  0.1049
              Bcc     0.0037     0.627     0.224     0.209  0.9963 -0.0496 -0.0702
 
              Baa    -0.0096    -4.812    -1.717    -1.605  0.3658 -0.3489  0.8628
     3 F(19)  Bbb    -0.0082    -4.120    -1.470    -1.374 -0.4517  0.7440  0.4924
              Bcc     0.0178     8.932     3.187     2.979  0.8138  0.5698 -0.1145
 
              Baa    -0.0233    -0.899    -0.321    -0.300 -0.6536  0.7547  0.0563
     4 N(14)  Bbb    -0.0143    -0.551    -0.197    -0.184  0.7497  0.6355  0.1843
              Bcc     0.0376     1.450     0.518     0.484 -0.1034 -0.1627  0.9813
 
              Baa    -0.0640    -8.588    -3.064    -2.865  0.0962 -0.1345  0.9862
     5 C(13)  Bbb     0.0276     3.706     1.322     1.236  0.5949  0.8022  0.0514
              Bcc     0.0364     4.882     1.742     1.628  0.7981 -0.5817 -0.1571
 
              Baa    -0.0833   -11.173    -3.987    -3.727  0.9835 -0.1569 -0.0900
     6 C(13)  Bbb    -0.0796   -10.688    -3.814    -3.565  0.1709  0.9692  0.1776
              Bcc     0.1629    21.861     7.800     7.292  0.0593 -0.1900  0.9800
 
              Baa    -0.0334    -4.484    -1.600    -1.496  0.0631 -0.1201  0.9908
     7 C(13)  Bbb     0.0158     2.117     0.755     0.706  0.9420 -0.3206 -0.0989
              Bcc     0.0176     2.367     0.845     0.790  0.3295  0.9396  0.0929
 
              Baa    -0.0965   -12.945    -4.619    -4.318  0.8461 -0.5231 -0.1022
     8 C(13)  Bbb    -0.0905   -12.147    -4.334    -4.052  0.5297  0.8466  0.0519
              Bcc     0.1870    25.092     8.954     8.370  0.0594 -0.0981  0.9934
 
              Baa    -0.0715    -9.600    -3.426    -3.202  0.0347 -0.0564  0.9978
     9 C(13)  Bbb     0.0288     3.864     1.379     1.289 -0.6052  0.7933  0.0659
              Bcc     0.0427     5.736     2.047     1.913  0.7953  0.6062  0.0066
 
              Baa    -0.0751   -10.080    -3.597    -3.362  0.3900  0.9208  0.0074
    10 C(13)  Bbb    -0.0717    -9.624    -3.434    -3.210  0.9208 -0.3898 -0.0151
              Bcc     0.1468    19.704     7.031     6.573  0.0110 -0.0127  0.9999
 
              Baa    -0.0227    -3.049    -1.088    -1.017  0.0043  0.0056  1.0000
    11 C(13)  Bbb     0.0094     1.266     0.452     0.422  0.0135  0.9999 -0.0057
              Bcc     0.0133     1.782     0.636     0.595  0.9999 -0.0136 -0.0042
 
              Baa    -0.0180    -2.422    -0.864    -0.808 -0.2652  0.9642 -0.0064
    12 C(13)  Bbb    -0.0167    -2.239    -0.799    -0.747  0.9641  0.2651 -0.0165
              Bcc     0.0347     4.661     1.663     1.555  0.0142  0.0106  0.9998
 
              Baa    -0.0130    -1.748    -0.624    -0.583  0.0100  0.0065  0.9999
    13 C(13)  Bbb     0.0057     0.767     0.274     0.256  0.1118  0.9937 -0.0076
              Bcc     0.0073     0.981     0.350     0.327  0.9937 -0.1119 -0.0092
 
              Baa    -0.0185    -2.486    -0.887    -0.829 -0.1531  0.9882 -0.0033
    14 C(13)  Bbb    -0.0173    -2.319    -0.827    -0.774  0.9882  0.1531 -0.0077
              Bcc     0.0358     4.804     1.714     1.603  0.0071  0.0044  1.0000
 
              Baa    -0.0210     1.523     0.543     0.508  0.9671 -0.2543 -0.0064
    15 O(17)  Bbb    -0.0173     1.253     0.447     0.418  0.2543  0.9667  0.0283
              Bcc     0.0384    -2.776    -0.990    -0.926 -0.0010 -0.0290  0.9996
 
              Baa    -0.0006    -0.077    -0.027    -0.026 -0.0233  0.0215  0.9995
    16 C(13)  Bbb    -0.0002    -0.032    -0.011    -0.011 -0.6800  0.7326 -0.0316
              Bcc     0.0008     0.109     0.039     0.036  0.7329  0.6804  0.0025
 
              Baa    -0.0002    -0.028    -0.010    -0.009 -0.3199  0.8208 -0.4732
    17 C(13)  Bbb    -0.0002    -0.023    -0.008    -0.008 -0.1440  0.4515  0.8806
              Bcc     0.0004     0.051     0.018     0.017  0.9364  0.3499 -0.0262
 
              Baa    -0.0002    -0.008    -0.003    -0.003 -0.0426  0.9183 -0.3936
    18 N(14)  Bbb    -0.0002    -0.007    -0.002    -0.002 -0.2830  0.3668  0.8862
              Bcc     0.0004     0.015     0.005     0.005  0.9582  0.1492  0.2443
 
              Baa    -0.0002    -0.007    -0.002    -0.002 -0.0891  0.7721  0.6292
    19 N(14)  Bbb    -0.0001    -0.006    -0.002    -0.002 -0.2846 -0.6251  0.7268
              Bcc     0.0003     0.012     0.004     0.004  0.9545 -0.1143  0.2754
 
              Baa    -0.0001    -0.005    -0.002    -0.002 -0.0295  0.5441  0.8385
    20 N(14)  Bbb    -0.0001    -0.003    -0.001    -0.001  0.3808  0.7817 -0.4939
              Bcc     0.0002     0.008     0.003     0.003  0.9242 -0.3048  0.2303
 
              Baa    -0.0119    -1.592    -0.568    -0.531  0.0088  0.0065  0.9999
    21 C(13)  Bbb     0.0053     0.713     0.255     0.238 -0.4060  0.9139 -0.0024
              Bcc     0.0065     0.879     0.314     0.293  0.9138  0.4059 -0.0106
 
              Baa    -0.0145    -1.950    -0.696    -0.650  0.1785  0.9839 -0.0067
    22 C(13)  Bbb    -0.0139    -1.865    -0.666    -0.622  0.9839 -0.1785  0.0032
              Bcc     0.0284     3.815     1.361     1.273 -0.0019  0.0072  1.0000
 
              Baa    -0.0947    -3.652    -1.303    -1.218  0.9657 -0.2597 -0.0015
    23 N(14)  Bbb    -0.0903    -3.481    -1.242    -1.161  0.2592  0.9636  0.0654
              Bcc     0.1850     7.133     2.545     2.379 -0.0155 -0.0636  0.9979
 
              Baa    -0.0083    -1.110    -0.396    -0.370  0.9966  0.0546  0.0619
    24 C(13)  Bbb     0.0014     0.191     0.068     0.064 -0.0721  0.2117  0.9747
              Bcc     0.0068     0.919     0.328     0.307 -0.0401  0.9758 -0.2149
 
              Baa    -0.0960    -3.701    -1.321    -1.234  0.9441  0.3286  0.0273
    25 N(14)  Bbb    -0.0913    -3.520    -1.256    -1.174 -0.3286  0.9445 -0.0045
              Bcc     0.1872     7.221     2.577     2.409 -0.0273 -0.0048  0.9996
 
              Baa    -0.0032    -0.423    -0.151    -0.141  0.9719  0.1472 -0.1839
    26 C(13)  Bbb     0.0003     0.038     0.014     0.013  0.2225 -0.3182  0.9215
              Bcc     0.0029     0.385     0.137     0.128 -0.0771  0.9365  0.3420
 
              Baa    -0.0034    -0.451    -0.161    -0.150  0.9743 -0.0590 -0.2174
    27 C(13)  Bbb     0.0004     0.057     0.020     0.019  0.2196  0.4637  0.8583
              Bcc     0.0029     0.393     0.140     0.131 -0.0501  0.8840 -0.4648
 
              Baa    -0.0069    -0.931    -0.332    -0.310  0.8964 -0.4425 -0.0248
    28 C(13)  Bbb    -0.0043    -0.583    -0.208    -0.195  0.4412  0.8962 -0.0460
              Bcc     0.0113     1.514     0.540     0.505  0.0426  0.0303  0.9986
 
              Baa    -0.0082    -1.106    -0.395    -0.369  0.8611 -0.5079 -0.0231
    29 C(13)  Bbb    -0.0072    -0.971    -0.347    -0.324  0.5079  0.8614 -0.0071
              Bcc     0.0155     2.077     0.741     0.693  0.0235 -0.0056  0.9997
 
              Baa    -0.0082    -1.096    -0.391    -0.366  0.7937  0.6083  0.0085
    30 C(13)  Bbb    -0.0070    -0.940    -0.336    -0.314 -0.6076  0.7920  0.0595
              Bcc     0.0152     2.036     0.727     0.679  0.0295 -0.0524  0.9982
 
              Baa    -0.0072    -0.969    -0.346    -0.323  0.8442  0.5361  0.0009
    31 C(13)  Bbb    -0.0044    -0.594    -0.212    -0.198 -0.5328  0.8389  0.1111
              Bcc     0.0116     1.563     0.558     0.521  0.0588 -0.0943  0.9938
 
              Baa    -0.0028    -0.486    -0.173    -0.162  0.0347  0.1984  0.9795
    32 B(11)  Bbb    -0.0004    -0.071    -0.025    -0.024 -0.0922  0.9766 -0.1945
              Bcc     0.0033     0.557     0.199     0.186  0.9951  0.0835 -0.0522
 
              Baa    -0.0078    -3.933    -1.403    -1.312 -0.1013 -0.4736  0.8749
    33 F(19)  Bbb    -0.0071    -3.545    -1.265    -1.182  0.3320  0.8129  0.4785
              Bcc     0.0149     7.478     2.668     2.494  0.9378 -0.3389 -0.0749
 
              Baa    -0.0139    -6.959    -2.483    -2.321  0.4532  0.7249 -0.5188
    34 F(19)  Bbb    -0.0128    -6.423    -2.292    -2.142 -0.3054  0.6731  0.6736
              Bcc     0.0266    13.381     4.775     4.464  0.8375 -0.1468  0.5264
 
              Baa    -0.2004   -26.891    -9.595    -8.970  0.9906  0.0055 -0.1368
    35 C(13)  Bbb    -0.1886   -25.308    -9.030    -8.442 -0.0029  0.9998  0.0196
              Bcc     0.3890    52.198    18.626    17.411  0.1369 -0.0190  0.9904
 
              Baa    -0.0460    -6.179    -2.205    -2.061  0.1020  0.1480  0.9837
    36 C(13)  Bbb     0.0182     2.441     0.871     0.814  0.7251 -0.6881  0.0283
              Bcc     0.0279     3.738     1.334     1.247  0.6811  0.7104 -0.1775
 
              Baa    -0.0306    -1.179    -0.421    -0.393  0.4643  0.8772 -0.1219
    37 N(14)  Bbb    -0.0249    -0.961    -0.343    -0.320  0.8857 -0.4591  0.0692
              Bcc     0.0555     2.140     0.764     0.714 -0.0048  0.1401  0.9901
 
              Baa    -0.0629    -8.438    -3.011    -2.814  0.5264  0.8380 -0.1434
    38 C(13)  Bbb    -0.0595    -7.982    -2.848    -2.663  0.8453 -0.5341 -0.0180
              Bcc     0.1224    16.420     5.859     5.477  0.0917  0.1117  0.9895
 
              Baa    -0.0049    -0.658    -0.235    -0.220  0.0890  0.0532  0.9946
    39 C(13)  Bbb     0.0013     0.179     0.064     0.060  0.9944  0.0525 -0.0918
              Bcc     0.0036     0.479     0.171     0.160 -0.0571  0.9972 -0.0483
 
              Baa    -0.0664    -8.912    -3.180    -2.973  0.9959  0.0237 -0.0878
    40 C(13)  Bbb    -0.0643    -8.633    -3.080    -2.880 -0.0442  0.9701 -0.2389
              Bcc     0.1307    17.544     6.260     5.852  0.0795  0.2417  0.9671
 
              Baa    -0.0094    -4.992    -1.781    -1.665  0.8132 -0.5541 -0.1781
    41 H(1)   Bbb    -0.0024    -1.286    -0.459    -0.429  0.0585 -0.2267  0.9722
              Bcc     0.0118     6.278     2.240     2.094  0.5791  0.8010  0.1519
 
              Baa    -0.0023    -1.232    -0.440    -0.411  0.1819 -0.1784  0.9670
    42 H(1)   Bbb    -0.0004    -0.203    -0.072    -0.068  0.9562 -0.1972 -0.2163
              Bcc     0.0027     1.435     0.512     0.479  0.2293  0.9640  0.1347
 
              Baa    -0.0036    -1.920    -0.685    -0.641 -0.3592  0.9237  0.1335
    43 H(1)   Bbb    -0.0027    -1.421    -0.507    -0.474  0.0592 -0.1202  0.9910
              Bcc     0.0063     3.341     1.192     1.114  0.9314  0.3638 -0.0115
 
              Baa    -0.0078    -4.162    -1.485    -1.388  0.8563  0.5162  0.0174
    44 H(1)   Bbb    -0.0017    -0.930    -0.332    -0.310 -0.0073 -0.0216  0.9997
              Bcc     0.0095     5.093     1.817     1.699 -0.5164  0.8562  0.0147
 
              Baa    -0.0012    -0.654    -0.234    -0.218  0.0639  0.0215  0.9977
    45 H(1)   Bbb    -0.0008    -0.431    -0.154    -0.144  0.8695  0.4894 -0.0663
              Bcc     0.0020     1.086     0.387     0.362 -0.4897  0.8718  0.0126
 
              Baa    -0.0007    -0.379    -0.135    -0.126  0.0113  0.0081  0.9999
    46 H(1)   Bbb    -0.0003    -0.152    -0.054    -0.051  0.1274  0.9918 -0.0094
              Bcc     0.0010     0.531     0.189     0.177  0.9918 -0.1275 -0.0102
 
              Baa    -0.0004    -0.192    -0.069    -0.064  0.0286  0.2972  0.9544
    47 H(1)   Bbb    -0.0002    -0.117    -0.042    -0.039  0.7252 -0.6633  0.1848
              Bcc     0.0006     0.309     0.110     0.103  0.6880  0.6868 -0.2345
 
              Baa    -0.0004    -0.203    -0.072    -0.068  0.0478 -0.3837  0.9222
    48 H(1)   Bbb    -0.0002    -0.116    -0.042    -0.039  0.7278 -0.6190 -0.2952
              Bcc     0.0006     0.319     0.114     0.106  0.6841  0.6853  0.2497
 
              Baa    -0.0002    -0.105    -0.037    -0.035 -0.1409  0.9713  0.1917
    49 H(1)   Bbb    -0.0002    -0.097    -0.035    -0.032  0.1799 -0.1653  0.9697
              Bcc     0.0004     0.202     0.072     0.067  0.9735  0.1711 -0.1515
 
              Baa    -0.0001    -0.070    -0.025    -0.023  0.2367 -0.5541  0.7981
    50 H(1)   Bbb    -0.0001    -0.067    -0.024    -0.022 -0.3168  0.7325  0.6025
              Bcc     0.0003     0.136     0.049     0.045  0.9185  0.3955  0.0021
 
              Baa    -0.0007    -0.360    -0.128    -0.120  0.0249 -0.0071  0.9997
    51 H(1)   Bbb    -0.0002    -0.085    -0.030    -0.028 -0.5440  0.8389  0.0195
              Bcc     0.0008     0.445     0.159     0.149  0.8387  0.5443 -0.0170
 
              Baa    -0.0010    -0.540    -0.193    -0.180  0.0032 -0.0183  0.9998
    52 H(1)   Bbb    -0.0009    -0.461    -0.164    -0.154  0.9789 -0.2042 -0.0069
              Bcc     0.0019     1.001     0.357     0.334  0.2043  0.9788  0.0172
 
              Baa    -0.0014    -0.731    -0.261    -0.244  0.0270 -0.0409  0.9988
    53 H(1)   Bbb    -0.0005    -0.244    -0.087    -0.081 -0.5956  0.8018  0.0489
              Bcc     0.0018     0.975     0.348     0.325  0.8028  0.5962  0.0027
 
              Baa    -0.0014    -0.729    -0.260    -0.243  0.8416 -0.5401 -0.0108
    54 H(1)   Bbb    -0.0007    -0.379    -0.135    -0.126  0.0122 -0.0010  0.9999
              Bcc     0.0021     1.108     0.395     0.369  0.5400  0.8416 -0.0058
 
              Baa    -0.0014    -0.760    -0.271    -0.253  0.7878  0.6157  0.0172
    55 H(1)   Bbb    -0.0007    -0.372    -0.133    -0.124  0.0211 -0.0550  0.9983
              Bcc     0.0021     1.132     0.404     0.377 -0.6156  0.7860  0.0563
 
              Baa    -0.0013    -0.683    -0.244    -0.228  0.0333 -0.0055  0.9994
    56 H(1)   Bbb    -0.0007    -0.370    -0.132    -0.123  0.5360  0.8441 -0.0132
              Bcc     0.0020     1.053     0.376     0.351  0.8436 -0.5361 -0.0310
 
              Baa    -0.0088    -4.712    -1.681    -1.572  0.3398  0.9298 -0.1415
    57 H(1)   Bbb    -0.0014    -0.765    -0.273    -0.255  0.0779  0.1221  0.9895
              Bcc     0.0103     5.478     1.955     1.827  0.9373 -0.3472 -0.0310
 
              Baa    -0.0021    -1.123    -0.401    -0.374  0.1301  0.1711  0.9766
    58 H(1)   Bbb    -0.0008    -0.411    -0.147    -0.137  0.9565 -0.2812 -0.0781
              Bcc     0.0029     1.534     0.547     0.512  0.2613  0.9443 -0.2003
 
              Baa    -0.0070    -3.724    -1.329    -1.242  0.7869  0.5512 -0.2773
    59 H(1)   Bbb    -0.0024    -1.297    -0.463    -0.433  0.1295  0.2919  0.9476
              Bcc     0.0094     5.021     1.791     1.675 -0.6033  0.7816 -0.1583
 

 ---------------------------------------------------------------------------------

 No NMR shielding tensors so no spin-rotation constants.
 Leave Link  601 at Sat Nov  8 05:52:10 2025, MaxMem= 30870077440 cpu:             141.0 elap:               2.5
 (Enter /public/software/gauss/g16/l9999.exe)
 1\1\GINC-CU303\SP\UM062X\def2TZVPP\C26H19B2F4N7O1(1-,2)\BAIDING\08-Nov
 -2025\0\\#p M062X/DEF2TZVPP scrf=(solvent=water) em=GD3\\Energy calcul
 ation for M100479042_reduced\\-1,2\F,0,-0.425957,0.73061,1.278617\B,0,
 -1.029912,0.414768,0.053176\F,0,-0.347593,1.087406,-0.976378\N,0,-1.06
 5264,-1.113365,-0.181041\C,0,-2.228428,-1.891389,-0.172103\C,0,-1.8621
 07,-3.241057,-0.373061\C,0,-0.478496,-3.281972,-0.477308\C,0,0.019252,
 -1.967794,-0.354831\C,0,1.429633,-1.683303,-0.387836\C,0,2.115489,-0.5
 08903,-0.352924\C,0,3.569289,-0.370496,-0.365974\C,0,4.125284,0.92317,
 -0.376196\C,0,5.502365,1.143922,-0.38997\C,0,6.37105,0.04767,-0.390501
 \O,0,7.739377,0.138733,-0.40759\C,0,8.340734,1.436932,-0.340229\C,0,9.
 841669,1.238643,-0.28422\N,0,10.289993,0.596332,0.977191\N,0,10.159273
 ,-0.628345,1.036229\N,0,10.111868,-1.755642,1.219684\C,0,5.845403,-1.2
 55021,-0.378888\C,0,4.47472,-1.45762,-0.3663\N,0,-2.4994,0.911444,0.04
 2155\C,0,-3.585978,0.103361,0.048342\N,0,-4.734946,0.823373,0.101689\C
 ,0,-4.373999,2.165355,0.129496\C,0,-2.962921,2.222433,0.089479\C,0,-2.
 285753,3.443719,0.097717\C,0,-3.061915,4.600923,0.156299\C,0,-4.467533
 ,4.543265,0.205939\C,0,-5.147573,3.325985,0.194921\B,0,-6.143951,0.191
 957,-0.071335\F,0,-7.036722,0.754915,0.848109\F,0,-6.617489,0.435875,-
 1.371149\C,0,-3.517764,-1.314965,0.003185\C,0,-4.759745,-2.02467,0.170
 745\N,0,-5.959153,-1.313091,0.18843\C,0,-6.979987,-2.195617,0.416484\C
 ,0,-6.463052,-3.476043,0.551802\C,0,-5.063308,-3.376309,0.402683\H,0,-
 2.543432,-4.072344,-0.463187\H,0,0.140187,-4.155143,-0.637631\H,0,2.00
 6596,-2.603625,-0.454284\H,0,1.573182,0.42787,-0.330763\H,0,3.458823,1
 .781591,-0.375186\H,0,5.880792,2.158831,-0.401655\H,0,8.089746,2.02398
 6,-1.232374\H,0,7.987007,1.973458,0.547388\H,0,10.181984,0.661759,-1.1
 48844\H,0,10.324099,2.215443,-0.308692\H,0,6.532566,-2.095429,-0.37493
 5\H,0,4.103652,-2.477469,-0.350988\H,0,-1.203753,3.487683,0.054285\H,0
 ,-2.569993,5.568559,0.164083\H,0,-5.035213,5.467208,0.255279\H,0,-6.22
 9283,3.27677,0.242043\H,0,-8.003238,-1.851427,0.470312\H,0,-7.031705,-
 4.374198,0.752256\H,0,-4.352432,-4.182526,0.500769\\Version=ES64L-G16R
 evA.03\State=2-A\HF=-1910.3009175\S2=0.775063\S2-1=0.\S2A=0.750472\RMS
 D=3.855e-09\Dipole=6.7464945,1.1522016,-0.6789814\Quadrupole=-51.17472
 57,39.5510134,11.6237124,19.5339229,-19.981274,-0.1315467\PG=C01 [X(C2
 6H19B2F4N7O1)]\\@


 GOOD SENSE ABOUT TRIVIALITIES IS BETTER THAN NONSENSE
 ABOUT THINGS THAT MATTER

                                       -- MAX BEERBOHM
 Job cpu time:       1 days  4 hours 23 minutes 11.5 seconds.
 Elapsed time:       0 days  0 hours 26 minutes 53.0 seconds.
 File lengths (MBytes):  RWF=   2444 Int=      0 D2E=      0 Chk=    159 Scr=      1
 Normal termination of Gaussian 16 at Sat Nov  8 05:52:11 2025.
