 Entering Gaussian System, Link 0=g16
 Input=M100034926_reduced_sp.gjf
 Output=M100034926_reduced_sp.log
 Initial command:
 /work/home/accqbws0vm/apprepo/gaussian/16-hy/scripts/../app/g16/l1.exe "/work/home/accqbws0vm/1012_third_energy/tmp_M100034926_reduced_sp_25977247/Gau-19135.inp" -scrdir="/work/home/accqbws0vm/1012_third_energy/tmp_M100034926_reduced_sp_25977247/"
 Entering Link 1 = /work/home/accqbws0vm/apprepo/gaussian/16-hy/scripts/../app/g16/l1.exe PID=     19136.
  
 Copyright (c) 1988,1990,1992,1993,1995,1998,2003,2009,2016,
            Gaussian, Inc.  All Rights Reserved.
  
 This is part of the Gaussian(R) 16 program.  It is based on
 the Gaussian(R) 09 system (copyright 2009, Gaussian, Inc.),
 the Gaussian(R) 03 system (copyright 2003, Gaussian, Inc.),
 the Gaussian(R) 98 system (copyright 1998, Gaussian, Inc.),
 the Gaussian(R) 94 system (copyright 1995, Gaussian, Inc.),
 the Gaussian 92(TM) system (copyright 1992, Gaussian, Inc.),
 the Gaussian 90(TM) system (copyright 1990, Gaussian, Inc.),
 the Gaussian 88(TM) system (copyright 1988, Gaussian, Inc.),
 the Gaussian 86(TM) system (copyright 1986, Carnegie Mellon
 University), and the Gaussian 82(TM) system (copyright 1983,
 Carnegie Mellon University). Gaussian is a federally registered
 trademark of Gaussian, Inc.
  
 This software contains proprietary and confidential information,
 including trade secrets, belonging to Gaussian, Inc.
  
 This software is provided under written license and may be
 used, copied, transmitted, or stored only in accord with that
 written license.
  
 The following legend is applicable only to US Government
 contracts under FAR:
  
                    RESTRICTED RIGHTS LEGEND
  
 Use, reproduction and disclosure by the US Government is
 subject to restrictions as set forth in subparagraphs (a)
 and (c) of the Commercial Computer Software - Restricted
 Rights clause in FAR 52.227-19.
  
 Gaussian, Inc.
 340 Quinnipiac St., Bldg. 40, Wallingford CT 06492
  
  
 ---------------------------------------------------------------
 Warning -- This program may not be used in any manner that
 competes with the business of Gaussian, Inc. or will provide
 assistance to any competitor of Gaussian, Inc.  The licensee
 of this program is prohibited from giving any competitor of
 Gaussian, Inc. access to this program.  By using this program,
 the user acknowledges that Gaussian, Inc. is engaged in the
 business of creating and licensing software in the field of
 computational chemistry and represents and warrants to the
 licensee that it is not a competitor of Gaussian, Inc. and that
 it will not use this program in any manner prohibited above.
 ---------------------------------------------------------------
  

 Cite this work as:
 Gaussian 16, Revision A.03,
 M. J. Frisch, G. W. Trucks, H. B. Schlegel, G. E. Scuseria, 
 M. A. Robb, J. R. Cheeseman, G. Scalmani, V. Barone, 
 G. A. Petersson, H. Nakatsuji, X. Li, M. Caricato, A. V. Marenich, 
 J. Bloino, B. G. Janesko, R. Gomperts, B. Mennucci, H. P. Hratchian, 
 J. V. Ortiz, A. F. Izmaylov, J. L. Sonnenberg, D. Williams-Young, 
 F. Ding, F. Lipparini, F. Egidi, J. Goings, B. Peng, A. Petrone, 
 T. Henderson, D. Ranasinghe, V. G. Zakrzewski, J. Gao, N. Rega, 
 G. Zheng, W. Liang, M. Hada, M. Ehara, K. Toyota, R. Fukuda, 
 J. Hasegawa, M. Ishida, T. Nakajima, Y. Honda, O. Kitao, H. Nakai, 
 T. Vreven, K. Throssell, J. A. Montgomery, Jr., J. E. Peralta, 
 F. Ogliaro, M. J. Bearpark, J. J. Heyd, E. N. Brothers, K. N. Kudin, 
 V. N. Staroverov, T. A. Keith, R. Kobayashi, J. Normand, 
 K. Raghavachari, A. P. Rendell, J. C. Burant, S. S. Iyengar, 
 J. Tomasi, M. Cossi, J. M. Millam, M. Klene, C. Adamo, R. Cammi, 
 J. W. Ochterski, R. L. Martin, K. Morokuma, O. Farkas, 
 J. B. Foresman, and D. J. Fox, Gaussian, Inc., Wallingford CT, 2016.
 
 ******************************************
 Gaussian 16:  ES64L-G16RevA.03 25-Dec-2016
                12-Oct-2025 
 ******************************************
 %nprocshared=64
 Will use up to   64 processors via shared memory.
 %mem=230GB
 %chk=M100034926_reduced_sp.chk
 ----------------------------------------------
 #p M062X/DEF2TZVPP scrf=(solvent=water) em=GD3
 ----------------------------------------------
 1/38=1,172=1/1;
 2/12=2,17=6,18=5,40=1/2;
 3/5=44,7=202,11=2,25=1,30=1,70=2201,72=1,74=-55,124=31/1,2,3;
 4//1;
 5/5=2,38=5,53=1/2;
 6/7=2,8=2,9=2,10=2,28=1/1;
 99/5=1,9=1/99;
 Leave Link    1 at Sun Oct 12 05:28:01 2025, MaxMem= 30870077440 cpu:               6.2 elap:               0.1
 (Enter /work/home/accqbws0vm/apprepo/gaussian/16-hy/scripts/../app/g16/l101.exe)
 -----------------------------------------
 Energy calculation for M100034926_reduced
 -----------------------------------------
 Symbolic Z-matrix:
 Charge = -1 Multiplicity = 2
 C                    -4.48182   2.30011  -1.06531 
 C                    -3.52701   1.14618  -1.02019 
 C                    -3.8767   -0.20443  -1.21803 
 I                    -5.82038  -0.90666  -1.54691 
 C                    -2.71215  -0.98896  -1.26519 
 C                    -2.52296  -2.39584  -1.60891 
 C                    -3.08404  -3.51041  -1.09025 
 C                    -3.93275  -3.76167   0.08603 
 C                    -4.81219  -4.85966   0.02057 
 C                    -5.61403  -5.23795   1.09417 
 C                    -5.52212  -4.52813   2.29178 
 C                    -4.64002  -3.45255   2.40753 
 C                    -3.85325  -3.05965   1.3177 
 O                    -2.97347  -2.01241   1.36491 
 C                    -2.63442  -1.402     2.62001 
 C                    -1.64816  -2.22981   3.41642 
 C                    -0.50761  -2.75048   2.79244 
 C                     0.39525  -3.48615   3.55523 
 C                     0.13412  -3.66951   4.91442 
 C                    -1.02077  -3.10284   5.44708 
 N                    -1.90734  -2.39727   4.72397 
 N                    -1.64578  -0.14607  -1.08443 
 C                    -2.10807   1.15114  -0.88331 
 C                    -1.17417   2.19544  -0.6141 
 C                    -1.64456   3.54896  -0.30042 
 C                    -1.21011   4.66016  -1.06301 
 C                    -1.65215   5.94046  -0.78596 
 C                    -2.53036   6.14675   0.29405 
 N                    -2.97707   7.46133   0.59603 
 O                    -2.56445   8.42422  -0.09945 
 O                    -3.77477   7.63297   1.55267 
 C                    -2.96891   5.06424   1.07953 
 C                    -2.53921   3.78704   0.77117 
 C                     0.22446   1.91359  -0.62771 
 C                     1.31333   2.68487  -0.11801 
 C                     1.29596   4.00687   0.58725 
 C                     2.45088   1.89494  -0.3177 
 I                     4.41079   2.47473   0.14904 
 C                     2.09185   0.66408  -0.91239 
 C                     3.0304   -0.37793  -1.25642 
 C                     2.86164  -1.41092  -2.1245 
 C                     3.80243  -2.459    -2.51104 
 C                     3.38743  -3.32949  -3.54254 
 C                     4.18371  -4.36634  -4.01911 
 C                     5.4459   -4.56574  -3.46008 
 C                     5.89661  -3.73519  -2.4311 
 C                     5.09197  -2.69564  -1.95186 
 O                     5.48757  -1.86613  -0.93679 
 C                     6.75701  -2.11136  -0.29986 
 C                     6.89644  -1.13061   0.83674 
 C                     6.13034  -1.28429   1.99767 
 C                     6.27818  -0.3617    3.03057 
 C                     7.18934   0.6824    2.86764 
 C                     7.90895   0.75339   1.67618 
 N                     7.77574  -0.12714   0.6702 
 N                     0.71879   0.68359  -1.07834 
 B                    -0.18065  -0.54684  -1.34887 
 F                    -0.07644  -0.96004  -2.70137 
 F                     0.18919  -1.62153  -0.51938 
 H                    -4.85466   2.5867   -0.0749 
 H                    -4.02108   3.18625  -1.50655 
 H                    -5.35177   2.03419  -1.67258 
 H                    -1.83202  -2.55257  -2.43494 
 H                    -2.85945  -4.42522  -1.63812 
 H                    -4.85711  -5.42148  -0.90869 
 H                    -6.28835  -6.08353   1.00185 
 H                    -6.12559  -4.81269   3.14872 
 H                    -4.56406  -2.93311   3.35436 
 H                    -2.17572  -0.45165   2.33187 
 H                    -3.52094  -1.17743   3.21754 
 H                    -0.33409  -2.56451   1.73716 
 H                     1.28902  -3.90324   3.10093 
 H                     0.80866  -4.2347    5.54909 
 H                    -1.25188  -3.22286   6.50319 
 H                    -0.5376    4.49746  -1.89873 
 H                    -1.3405    6.78101  -1.39285 
 H                    -3.62633   5.24306   1.92086 
 H                    -2.86678   2.95284   1.3823 
 H                     0.41017   4.11692   1.21637 
 H                     2.17796   4.09324   1.22726 
 H                     1.30892   4.85747  -0.10378 
 H                     3.99284  -0.25191  -0.77865 
 H                     1.91504  -1.48257  -2.64726 
 H                     2.40309  -3.16929  -3.97426 
 H                     3.82318  -5.00903  -4.81619 
 H                     6.08825  -5.36557  -3.81645 
 H                     6.87923  -3.9039   -2.00881 
 H                     6.78214  -3.14046   0.07606 
 H                     7.57204  -1.96958  -1.01573 
 H                     5.43834  -2.11616   2.08344 
 H                     5.69977  -0.45771   3.94431 
 H                     7.34461   1.42378   3.64441 
 H                     8.63015   1.55248   1.521 
 
 ITRead=  0  0  0  0  0  0  0  0  0  0  0  0  0  0  0  0  0  0  0  0
 ITRead=  0  0  0  0  0  0  0  0  0  0  0  0  0  0  0  0  0  0  0  0
 ITRead=  0  0  0  0  0  0  0  0  0  0  0  0  0  0  0  0  0  0  0  0
 ITRead=  0  0  0  0  0  0  0  0  0  0  0  0  0  0  0  0  0  0  0  0
 ITRead=  0  0  0  0  0  0  0  0  0  0  0  0  0
 MicOpt= -1 -1 -1 -1 -1 -1 -1 -1 -1 -1 -1 -1 -1 -1 -1 -1 -1 -1 -1 -1
 MicOpt= -1 -1 -1 -1 -1 -1 -1 -1 -1 -1 -1 -1 -1 -1 -1 -1 -1 -1 -1 -1
 MicOpt= -1 -1 -1 -1 -1 -1 -1 -1 -1 -1 -1 -1 -1 -1 -1 -1 -1 -1 -1 -1
 MicOpt= -1 -1 -1 -1 -1 -1 -1 -1 -1 -1 -1 -1 -1 -1 -1 -1 -1 -1 -1 -1
 MicOpt= -1 -1 -1 -1 -1 -1 -1 -1 -1 -1 -1 -1 -1
 NAtoms=     93 NQM=       93 NQMF=       0 NMMI=      0 NMMIF=      0
                NMic=       0 NMicF=      0.
                    Isotopes and Nuclear Properties:
 (Nuclear quadrupole moments (NQMom) in fm**2, nuclear magnetic moments (NMagM)
  in nuclear magnetons)

  Atom         1           2           3           4           5           6           7           8           9          10
 IAtWgt=          12          12          12         127          12          12          12          12          12          12
 AtmWgt=  12.0000000  12.0000000  12.0000000 126.9004000  12.0000000  12.0000000  12.0000000  12.0000000  12.0000000  12.0000000
 NucSpn=           0           0           0           5           0           0           0           0           0           0
 AtZEff=  -0.0000000  -0.0000000  -0.0000000  -0.0000000  -0.0000000  -0.0000000  -0.0000000  -0.0000000  -0.0000000  -0.0000000
 NQMom=    0.0000000   0.0000000   0.0000000 -71.0000000   0.0000000   0.0000000   0.0000000   0.0000000   0.0000000   0.0000000
 NMagM=    0.0000000   0.0000000   0.0000000   2.8132800   0.0000000   0.0000000   0.0000000   0.0000000   0.0000000   0.0000000
 AtZNuc=   6.0000000   6.0000000   6.0000000  53.0000000   6.0000000   6.0000000   6.0000000   6.0000000   6.0000000   6.0000000

  Atom        11          12          13          14          15          16          17          18          19          20
 IAtWgt=          12          12          12          16          12          12          12          12          12          12
 AtmWgt=  12.0000000  12.0000000  12.0000000  15.9949146  12.0000000  12.0000000  12.0000000  12.0000000  12.0000000  12.0000000
 NucSpn=           0           0           0           0           0           0           0           0           0           0
 AtZEff=  -0.0000000  -0.0000000  -0.0000000  -0.0000000  -0.0000000  -0.0000000  -0.0000000  -0.0000000  -0.0000000  -0.0000000
 NQMom=    0.0000000   0.0000000   0.0000000   0.0000000   0.0000000   0.0000000   0.0000000   0.0000000   0.0000000   0.0000000
 NMagM=    0.0000000   0.0000000   0.0000000   0.0000000   0.0000000   0.0000000   0.0000000   0.0000000   0.0000000   0.0000000
 AtZNuc=   6.0000000   6.0000000   6.0000000   8.0000000   6.0000000   6.0000000   6.0000000   6.0000000   6.0000000   6.0000000

  Atom        21          22          23          24          25          26          27          28          29          30
 IAtWgt=          14          14          12          12          12          12          12          12          14          16
 AtmWgt=  14.0030740  14.0030740  12.0000000  12.0000000  12.0000000  12.0000000  12.0000000  12.0000000  14.0030740  15.9949146
 NucSpn=           2           2           0           0           0           0           0           0           2           0
 AtZEff=  -0.0000000  -0.0000000  -0.0000000  -0.0000000  -0.0000000  -0.0000000  -0.0000000  -0.0000000  -0.0000000  -0.0000000
 NQMom=    2.0440000   2.0440000   0.0000000   0.0000000   0.0000000   0.0000000   0.0000000   0.0000000   2.0440000   0.0000000
 NMagM=    0.4037610   0.4037610   0.0000000   0.0000000   0.0000000   0.0000000   0.0000000   0.0000000   0.4037610   0.0000000
 AtZNuc=   7.0000000   7.0000000   6.0000000   6.0000000   6.0000000   6.0000000   6.0000000   6.0000000   7.0000000   8.0000000

  Atom        31          32          33          34          35          36          37          38          39          40
 IAtWgt=          16          12          12          12          12          12          12         127          12          12
 AtmWgt=  15.9949146  12.0000000  12.0000000  12.0000000  12.0000000  12.0000000  12.0000000 126.9004000  12.0000000  12.0000000
 NucSpn=           0           0           0           0           0           0           0           5           0           0
 AtZEff=  -0.0000000  -0.0000000  -0.0000000  -0.0000000  -0.0000000  -0.0000000  -0.0000000  -0.0000000  -0.0000000  -0.0000000
 NQMom=    0.0000000   0.0000000   0.0000000   0.0000000   0.0000000   0.0000000   0.0000000 -71.0000000   0.0000000   0.0000000
 NMagM=    0.0000000   0.0000000   0.0000000   0.0000000   0.0000000   0.0000000   0.0000000   2.8132800   0.0000000   0.0000000
 AtZNuc=   8.0000000   6.0000000   6.0000000   6.0000000   6.0000000   6.0000000   6.0000000  53.0000000   6.0000000   6.0000000

  Atom        41          42          43          44          45          46          47          48          49          50
 IAtWgt=          12          12          12          12          12          12          12          16          12          12
 AtmWgt=  12.0000000  12.0000000  12.0000000  12.0000000  12.0000000  12.0000000  12.0000000  15.9949146  12.0000000  12.0000000
 NucSpn=           0           0           0           0           0           0           0           0           0           0
 AtZEff=  -0.0000000  -0.0000000  -0.0000000  -0.0000000  -0.0000000  -0.0000000  -0.0000000  -0.0000000  -0.0000000  -0.0000000
 NQMom=    0.0000000   0.0000000   0.0000000   0.0000000   0.0000000   0.0000000   0.0000000   0.0000000   0.0000000   0.0000000
 NMagM=    0.0000000   0.0000000   0.0000000   0.0000000   0.0000000   0.0000000   0.0000000   0.0000000   0.0000000   0.0000000
 AtZNuc=   6.0000000   6.0000000   6.0000000   6.0000000   6.0000000   6.0000000   6.0000000   8.0000000   6.0000000   6.0000000

  Atom        51          52          53          54          55          56          57          58          59          60
 IAtWgt=          12          12          12          12          14          14          11          19          19           1
 AtmWgt=  12.0000000  12.0000000  12.0000000  12.0000000  14.0030740  14.0030740  11.0093053  18.9984032  18.9984032   1.0078250
 NucSpn=           0           0           0           0           2           2           3           1           1           1
 AtZEff=  -0.0000000  -0.0000000  -0.0000000  -0.0000000  -0.0000000  -0.0000000  -0.0000000  -0.0000000  -0.0000000  -0.0000000
 NQMom=    0.0000000   0.0000000   0.0000000   0.0000000   2.0440000   2.0440000   4.0590000   0.0000000   0.0000000   0.0000000
 NMagM=    0.0000000   0.0000000   0.0000000   0.0000000   0.4037610   0.4037610   2.6886370   2.6288670   2.6288670   2.7928460
 AtZNuc=   6.0000000   6.0000000   6.0000000   6.0000000   7.0000000   7.0000000   5.0000000   9.0000000   9.0000000   1.0000000

  Atom        61          62          63          64          65          66          67          68          69          70
 IAtWgt=           1           1           1           1           1           1           1           1           1           1
 AtmWgt=   1.0078250   1.0078250   1.0078250   1.0078250   1.0078250   1.0078250   1.0078250   1.0078250   1.0078250   1.0078250
 NucSpn=           1           1           1           1           1           1           1           1           1           1
 AtZEff=  -0.0000000  -0.0000000  -0.0000000  -0.0000000  -0.0000000  -0.0000000  -0.0000000  -0.0000000  -0.0000000  -0.0000000
 NQMom=    0.0000000   0.0000000   0.0000000   0.0000000   0.0000000   0.0000000   0.0000000   0.0000000   0.0000000   0.0000000
 NMagM=    2.7928460   2.7928460   2.7928460   2.7928460   2.7928460   2.7928460   2.7928460   2.7928460   2.7928460   2.7928460
 AtZNuc=   1.0000000   1.0000000   1.0000000   1.0000000   1.0000000   1.0000000   1.0000000   1.0000000   1.0000000   1.0000000

  Atom        71          72          73          74          75          76          77          78          79          80
 IAtWgt=           1           1           1           1           1           1           1           1           1           1
 AtmWgt=   1.0078250   1.0078250   1.0078250   1.0078250   1.0078250   1.0078250   1.0078250   1.0078250   1.0078250   1.0078250
 NucSpn=           1           1           1           1           1           1           1           1           1           1
 AtZEff=  -0.0000000  -0.0000000  -0.0000000  -0.0000000  -0.0000000  -0.0000000  -0.0000000  -0.0000000  -0.0000000  -0.0000000
 NQMom=    0.0000000   0.0000000   0.0000000   0.0000000   0.0000000   0.0000000   0.0000000   0.0000000   0.0000000   0.0000000
 NMagM=    2.7928460   2.7928460   2.7928460   2.7928460   2.7928460   2.7928460   2.7928460   2.7928460   2.7928460   2.7928460
 AtZNuc=   1.0000000   1.0000000   1.0000000   1.0000000   1.0000000   1.0000000   1.0000000   1.0000000   1.0000000   1.0000000

  Atom        81          82          83          84          85          86          87          88          89          90
 IAtWgt=           1           1           1           1           1           1           1           1           1           1
 AtmWgt=   1.0078250   1.0078250   1.0078250   1.0078250   1.0078250   1.0078250   1.0078250   1.0078250   1.0078250   1.0078250
 NucSpn=           1           1           1           1           1           1           1           1           1           1
 AtZEff=  -0.0000000  -0.0000000  -0.0000000  -0.0000000  -0.0000000  -0.0000000  -0.0000000  -0.0000000  -0.0000000  -0.0000000
 NQMom=    0.0000000   0.0000000   0.0000000   0.0000000   0.0000000   0.0000000   0.0000000   0.0000000   0.0000000   0.0000000
 NMagM=    2.7928460   2.7928460   2.7928460   2.7928460   2.7928460   2.7928460   2.7928460   2.7928460   2.7928460   2.7928460
 AtZNuc=   1.0000000   1.0000000   1.0000000   1.0000000   1.0000000   1.0000000   1.0000000   1.0000000   1.0000000   1.0000000

  Atom        91          92          93
 IAtWgt=           1           1           1
 AtmWgt=   1.0078250   1.0078250   1.0078250
 NucSpn=           1           1           1
 AtZEff=  -0.0000000  -0.0000000  -0.0000000
 NQMom=    0.0000000   0.0000000   0.0000000
 NMagM=    2.7928460   2.7928460   2.7928460
 AtZNuc=   1.0000000   1.0000000   1.0000000
 Leave Link  101 at Sun Oct 12 05:28:01 2025, MaxMem= 30870077440 cpu:               5.1 elap:               0.1
 (Enter /work/home/accqbws0vm/apprepo/gaussian/16-hy/scripts/../app/g16/l202.exe)
 Stoichiometry    C45H34BF2I2N5O4(1-,2)
 Framework group  C1[X(C45H34BF2I2N5O4)]
 Deg. of freedom   273
 Full point group                 C1      NOp   1
 Largest Abelian subgroup         C1      NOp   1
 Largest concise Abelian subgroup C1      NOp   1
                         Standard orientation:                         
 ---------------------------------------------------------------------
 Center     Atomic      Atomic             Coordinates (Angstroms)
 Number     Number       Type             X           Y           Z
 ---------------------------------------------------------------------
      1          6           0       -4.481819    2.300109   -1.065314
      2          6           0       -3.527009    1.146175   -1.020190
      3          6           0       -3.876700   -0.204425   -1.218028
      4         53           0       -5.820383   -0.906661   -1.546905
      5          6           0       -2.712149   -0.988961   -1.265185
      6          6           0       -2.522957   -2.395842   -1.608912
      7          6           0       -3.084043   -3.510413   -1.090252
      8          6           0       -3.932747   -3.761671    0.086025
      9          6           0       -4.812185   -4.859658    0.020567
     10          6           0       -5.614033   -5.237946    1.094169
     11          6           0       -5.522119   -4.528130    2.291785
     12          6           0       -4.640022   -3.452546    2.407534
     13          6           0       -3.853245   -3.059645    1.317702
     14          8           0       -2.973467   -2.012409    1.364907
     15          6           0       -2.634415   -1.401996    2.620006
     16          6           0       -1.648156   -2.229812    3.416415
     17          6           0       -0.507611   -2.750482    2.792436
     18          6           0        0.395249   -3.486151    3.555227
     19          6           0        0.134116   -3.669509    4.914419
     20          6           0       -1.020773   -3.102835    5.447077
     21          7           0       -1.907340   -2.397272    4.723974
     22          7           0       -1.645784   -0.146071   -1.084430
     23          6           0       -2.108075    1.151143   -0.883309
     24          6           0       -1.174165    2.195444   -0.614096
     25          6           0       -1.644561    3.548958   -0.300421
     26          6           0       -1.210107    4.660158   -1.063007
     27          6           0       -1.652145    5.940461   -0.785963
     28          6           0       -2.530361    6.146752    0.294045
     29          7           0       -2.977066    7.461327    0.596026
     30          8           0       -2.564452    8.424219   -0.099451
     31          8           0       -3.774765    7.632970    1.552669
     32          6           0       -2.968911    5.064240    1.079529
     33          6           0       -2.539209    3.787044    0.771171
     34          6           0        0.224459    1.913592   -0.627707
     35          6           0        1.313334    2.684872   -0.118014
     36          6           0        1.295956    4.006866    0.587254
     37          6           0        2.450881    1.894937   -0.317702
     38         53           0        4.410789    2.474730    0.149040
     39          6           0        2.091848    0.664078   -0.912388
     40          6           0        3.030399   -0.377932   -1.256419
     41          6           0        2.861637   -1.410919   -2.124502
     42          6           0        3.802429   -2.459002   -2.511038
     43          6           0        3.387428   -3.329489   -3.542537
     44          6           0        4.183709   -4.366342   -4.019107
     45          6           0        5.445904   -4.565743   -3.460082
     46          6           0        5.896610   -3.735194   -2.431102
     47          6           0        5.091970   -2.695638   -1.951859
     48          8           0        5.487571   -1.866126   -0.936794
     49          6           0        6.757011   -2.111364   -0.299861
     50          6           0        6.896441   -1.130610    0.836740
     51          6           0        6.130342   -1.284287    1.997668
     52          6           0        6.278182   -0.361704    3.030566
     53          6           0        7.189344    0.682397    2.867637
     54          6           0        7.908950    0.753386    1.676176
     55          7           0        7.775742   -0.127142    0.670204
     56          7           0        0.718786    0.683588   -1.078336
     57          5           0       -0.180652   -0.546843   -1.348873
     58          9           0       -0.076441   -0.960037   -2.701367
     59          9           0        0.189186   -1.621530   -0.519376
     60          1           0       -4.854655    2.586702   -0.074902
     61          1           0       -4.021076    3.186253   -1.506550
     62          1           0       -5.351771    2.034186   -1.672575
     63          1           0       -1.832016   -2.552571   -2.434937
     64          1           0       -2.859449   -4.425219   -1.638118
     65          1           0       -4.857108   -5.421476   -0.908685
     66          1           0       -6.288351   -6.083527    1.001849
     67          1           0       -6.125590   -4.812687    3.148724
     68          1           0       -4.564060   -2.933105    3.354360
     69          1           0       -2.175724   -0.451648    2.331874
     70          1           0       -3.520936   -1.177433    3.217544
     71          1           0       -0.334087   -2.564505    1.737156
     72          1           0        1.289024   -3.903238    3.100932
     73          1           0        0.808656   -4.234702    5.549093
     74          1           0       -1.251880   -3.222857    6.503194
     75          1           0       -0.537603    4.497460   -1.898731
     76          1           0       -1.340500    6.781007   -1.392848
     77          1           0       -3.626329    5.243055    1.920855
     78          1           0       -2.866778    2.952836    1.382299
     79          1           0        0.410172    4.116923    1.216368
     80          1           0        2.177964    4.093243    1.227260
     81          1           0        1.308917    4.857473   -0.103783
     82          1           0        3.992838   -0.251906   -0.778649
     83          1           0        1.915037   -1.482565   -2.647259
     84          1           0        2.403090   -3.169291   -3.974264
     85          1           0        3.823183   -5.009035   -4.816194
     86          1           0        6.088252   -5.365565   -3.816446
     87          1           0        6.879233   -3.903896   -2.008808
     88          1           0        6.782143   -3.140462    0.076061
     89          1           0        7.572044   -1.969577   -1.015732
     90          1           0        5.438342   -2.116160    2.083441
     91          1           0        5.699765   -0.457711    3.944313
     92          1           0        7.344611    1.423783    3.644413
     93          1           0        8.630145    1.552481    1.520995
 ---------------------------------------------------------------------
 Rotational constants (GHZ):           0.0371599           0.0233943           0.0181515
 Leave Link  202 at Sun Oct 12 05:28:01 2025, MaxMem= 30870077440 cpu:               4.1 elap:               0.1
 (Enter /work/home/accqbws0vm/apprepo/gaussian/16-hy/scripts/../app/g16/l301.exe)
 Standard basis: def2TZVPP (5D, 7F)
 Ernie: Thresh=  0.10000D-02 Tol=  0.10000D-05 Strict=F.
 There are  2680 symmetry adapted cartesian basis functions of A   symmetry.
 There are  2343 symmetry adapted basis functions of A   symmetry.
  2343 basis functions,  3703 primitive gaussians,  2680 cartesian basis functions
   223 alpha electrons      222 beta electrons
       nuclear repulsion energy      9123.4772396608 Hartrees.
 IExCor= 4336 DFT=T Ex+Corr=M062X ExCW=0 ScaHFX=  0.540000
 ScaDFX=  1.000000  1.000000  1.000000  1.000000 ScalE2=  1.000000  1.000000
 IRadAn=      5 IRanWt=     -1 IRanGd=            0 ICorTp=0 IEmpDi=131
 NAtoms=   93 NActive=   93 NUniq=   93 SFac= 1.00D+00 NAtFMM=   60 NAOKFM=T Big=T
 Integral buffers will be    131072 words long.
 Raffenetti 2 integral format.
 Two-electron integral symmetry is turned on.
 R6Disp:  Grimme-D3 Dispersion energy=       -0.0109522462 Hartrees.
 Nuclear repulsion after empirical dispersion term =     9123.4662874147 Hartrees.
 ------------------------------------------------------------------------------
 Polarizable Continuum Model (PCM)
 =================================
 Model                : PCM.
 Atomic radii         : UFF (Universal Force Field).
 Polarization charges : Total charges.
 Charge compensation  : None.
 Solution method      : On-the-fly selection.
 Cavity type          : Scaled VdW (van der Waals Surface) (Alpha=1.100).
 Cavity algorithm     : GePol (No added spheres)
                        Default sphere list used, NSphG=   93.
                        Lebedev-Laikov grids with approx.  5.0 points / Ang**2.
                        Smoothing algorithm: York/Karplus (Gamma=1.0000).
                        Polarization charges: spherical gaussians, with
                                              point-specific exponents (IZeta= 3).
                        Self-potential: point-specific (ISelfS= 7).
                        Self-field    : sphere-specific E.n sum rule (ISelfD= 2).
 Solvent              : Water, Eps=  78.355300 Eps(inf)=   1.777849
 ------------------------------------------------------------------------------
 GePol: Number of generator spheres                  =      93
 GePol: Total number of spheres                      =      93
 GePol: Number of exposed spheres                    =      93 (100.00%)
 GePol: Number of points                             =    6857
 GePol: Average weight of points                     =       0.13
 GePol: Minimum weight of points                     =   0.34D-11
 GePol: Maximum weight of points                     =    0.20577
 GePol: Number of points with low weight             =     476
 GePol: Fraction of low-weight points (<1% of avg)   =       6.94%
 GePol: Cavity surface area                          =    884.072 Ang**2
 GePol: Cavity volume                                =   1068.453 Ang**3
 Leave Link  301 at Sun Oct 12 05:28:01 2025, MaxMem= 30870077440 cpu:               9.0 elap:               0.2
 (Enter /work/home/accqbws0vm/apprepo/gaussian/16-hy/scripts/../app/g16/l302.exe)
 NPDir=0 NMtPBC=     1 NCelOv=     1 NCel=       1 NClECP=     1 NCelD=      1
         NCelK=      1 NCelE2=     1 NClLst=     1 CellRange=     0.0.
 One-electron integrals computed using PRISM.
 One-electron integral symmetry used in STVInt
   1 Symmetry operations used in ECPInt.
 ECPInt:  NShTT=  372816 NPrTT= 1088501 LenC2=  237572 LenP2D=  450845.
 LDataN:  DoStor=T MaxTD1= 7 Len=  274
 Number of processors reduced to  41 by ecpmxn.
 NBasis=  2343 RedAO= T EigKep=  4.28D-06  NBF=  2343
 NBsUse=  2343 1.00D-06 EigRej= -1.00D+00 NBFU=  2343
 Precomputing XC quadrature grid using
 IXCGrd= 4 IRadAn=           5 IRanWt=          -1 IRanGd=           0 AccXCQ= 0.00D+00.
 Defaulting to unpruned grid for atomic number  53.
 Defaulting to unpruned grid for atomic number  53.
 Generated NRdTot=       0 NPtTot=           0 NUsed=           0 NTot=          32
 NSgBfM=  2380  2377  2377  2377  2380 MxSgAt=    93 MxSgA2=    93.
 Leave Link  302 at Sun Oct 12 05:28:23 2025, MaxMem= 30870077440 cpu:            1402.3 elap:              22.4
 (Enter /work/home/accqbws0vm/apprepo/gaussian/16-hy/scripts/../app/g16/l303.exe)
 DipDrv:  MaxL=1.
 Leave Link  303 at Sun Oct 12 05:28:24 2025, MaxMem= 30870077440 cpu:              48.2 elap:               0.9
 (Enter /work/home/accqbws0vm/apprepo/gaussian/16-hy/scripts/../app/g16/l401.exe)
 ExpMin= 6.06D-02 ExpMax= 3.55D+04 ExpMxC= 1.21D+03 IAcc=3 IRadAn=         5 AccDes= 0.00D+00
 Harris functional with IExCor= 1009 and IRadAn=       5 diagonalized for initial guess.
 HarFok:  IExCor= 1009 AccDes= 0.00D+00 IRadAn=         5 IDoV= 1 UseB2=F ITyADJ=14
 ICtDFT=  3500011 ScaDFX=  1.000000  1.000000  1.000000  1.000000
 Defaulting to unpruned grid for atomic number  53.
 FoFCou: FMM=F IPFlag=           0 FMFlag=      100000 FMFlg1=        2001
         NFxFlg=           0 DoJE=T BraDBF=F KetDBF=T FulRan=T
         wScrn=  0.000000 ICntrl=       500 IOpCl=  0 I1Cent=   200000004 NGrid=           0
         NMat0=    1 NMatS0=      1 NMatT0=    0 NMatD0=    1 NMtDS0=    0 NMtDT0=    0
 Petite list used in FoFCou.
 Harris En= -3129.23542737643    
 JPrj=0 DoOrth=F DoCkMO=F.
 Initial guess <Sx>= 0.0000 <Sy>= 0.0000 <Sz>= 0.5000 <S**2>= 0.7500 S= 0.5000
 Leave Link  401 at Sun Oct 12 05:28:43 2025, MaxMem= 30870077440 cpu:            1184.7 elap:              18.6
 (Enter /work/home/accqbws0vm/apprepo/gaussian/16-hy/scripts/../app/g16/l502.exe)
 Integral symmetry usage will be decided dynamically.
 UHF open shell SCF:
 Using DIIS extrapolation, IDIIS=  1040.
 NGot= 30870077440 LenX= 30855518779 LenY= 30848333699
 Requested convergence on RMS density matrix=1.00D-08 within 128 cycles.
 Requested convergence on MAX density matrix=1.00D-06.
 Requested convergence on             energy=1.00D-06.
 No special actions if energy rises.
 Fock matrices will be formed incrementally for  20 cycles.

 Cycle   1  Pass 1  IDiag  1:
 FoFJK:  IHMeth= 1 ICntrl=       0 DoSepK=F KAlg= 0 I1Cent=           0 FoldK=F
 IRaf= 600000000 NMat=       1 IRICut=       1 DoRegI=T DoRafI=F ISym2E= 0 IDoP0=0 IntGTp=1.
 FoFCou: FMM=T IPFlag=           0 FMFlag=      100000 FMFlg1=        2001
         NFxFlg=           0 DoJE=F BraDBF=F KetDBF=F FulRan=T
         wScrn=  0.000000 ICntrl=         0 IOpCl=  1 I1Cent=           0 NGrid=           0
         NMat0=    1 NMatS0=      1 NMatT0=    0 NMatD0=    1 NMtDS0=    0 NMtDT0=    0
 Symmetry not used in FoFCou.
 FMM levels:  10  Number of levels for PrismC:   9
 Defaulting to unpruned grid for atomic number  53.
 Defaulting to unpruned grid for atomic number  53.
 Defaulting to unpruned grid for atomic number  53.
 Defaulting to unpruned grid for atomic number  53.
 Defaulting to unpruned grid for atomic number  53.
 Defaulting to unpruned grid for atomic number  53.
 Defaulting to unpruned grid for atomic number  53.
 Defaulting to unpruned grid for atomic number  53.
 Defaulting to unpruned grid for atomic number  53.
 Defaulting to unpruned grid for atomic number  53.
 Defaulting to unpruned grid for atomic number  53.
 Defaulting to unpruned grid for atomic number  53.
 Defaulting to unpruned grid for atomic number  53.
 Defaulting to unpruned grid for atomic number  53.
 Defaulting to unpruned grid for atomic number  53.
 Defaulting to unpruned grid for atomic number  53.
 Defaulting to unpruned grid for atomic number  53.
 Defaulting to unpruned grid for atomic number  53.
 Defaulting to unpruned grid for atomic number  53.
 Defaulting to unpruned grid for atomic number  53.
 Defaulting to unpruned grid for atomic number  53.
 Defaulting to unpruned grid for atomic number  53.
 Defaulting to unpruned grid for atomic number  53.
 Defaulting to unpruned grid for atomic number  53.
 Defaulting to unpruned grid for atomic number  53.
 Defaulting to unpruned grid for atomic number  53.
 Defaulting to unpruned grid for atomic number  53.
 Defaulting to unpruned grid for atomic number  53.
 Defaulting to unpruned grid for atomic number  53.
 Defaulting to unpruned grid for atomic number  53.
 Defaulting to unpruned grid for atomic number  53.
 Defaulting to unpruned grid for atomic number  53.
 Defaulting to unpruned grid for atomic number  53.
 Defaulting to unpruned grid for atomic number  53.
 Defaulting to unpruned grid for atomic number  53.
 Defaulting to unpruned grid for atomic number  53.
 Defaulting to unpruned grid for atomic number  53.
 Defaulting to unpruned grid for atomic number  53.
 Defaulting to unpruned grid for atomic number  53.
 Defaulting to unpruned grid for atomic number  53.
 Defaulting to unpruned grid for atomic number  53.
 Defaulting to unpruned grid for atomic number  53.
 Defaulting to unpruned grid for atomic number  53.
 Defaulting to unpruned grid for atomic number  53.
 Defaulting to unpruned grid for atomic number  53.
 Defaulting to unpruned grid for atomic number  53.
 Defaulting to unpruned grid for atomic number  53.
 Defaulting to unpruned grid for atomic number  53.
 Defaulting to unpruned grid for atomic number  53.
 Defaulting to unpruned grid for atomic number  53.
 Defaulting to unpruned grid for atomic number  53.
 Defaulting to unpruned grid for atomic number  53.
 Defaulting to unpruned grid for atomic number  53.
 Defaulting to unpruned grid for atomic number  53.
 Defaulting to unpruned grid for atomic number  53.
 Defaulting to unpruned grid for atomic number  53.
 Defaulting to unpruned grid for atomic number  53.
 Defaulting to unpruned grid for atomic number  53.
 Defaulting to unpruned grid for atomic number  53.
 Defaulting to unpruned grid for atomic number  53.
 Defaulting to unpruned grid for atomic number  53.
 Defaulting to unpruned grid for atomic number  53.
 Defaulting to unpruned grid for atomic number  53.
 Defaulting to unpruned grid for atomic number  53.
 Inv3:  Mode=1 IEnd=   141055347.
 Iteration    1 A*A^-1 deviation from unit magnitude is 3.55D-15 for    883.
 Iteration    1 A*A^-1 deviation from orthogonality  is 5.77D-15 for   2881    754.
 Iteration    1 A^-1*A deviation from unit magnitude is 3.55D-15 for    883.
 Iteration    1 A^-1*A deviation from orthogonality  is 8.39D-13 for   6035   5998.
 E= -3128.50066779822    
 DIIS: error= 2.47D-02 at cycle   1 NSaved=   1.
 NSaved= 1 IEnMin= 1 EnMin= -3128.50066779822     IErMin= 1 ErrMin= 2.47D-02
 ErrMax= 2.47D-02  0.00D+00 EMaxC= 1.00D-01 BMatC= 7.14D+00 BMatP= 7.14D+00
 IDIUse=3 WtCom= 7.53D-01 WtEn= 2.47D-01
 Coeff-Com:  0.100D+01
 Coeff-En:   0.100D+01
 Coeff:      0.100D+01
 Gap=     0.077 Goal=   None    Shift=    0.000
 Gap=     0.271 Goal=   None    Shift=    0.000
 GapD=    0.077 DampG=0.500 DampE=0.500 DampFc=0.2500 IDamp=-1.
 Damping current iteration by 2.50D-01
 RMSDP=1.37D-03 MaxDP=1.70D-01              OVMax= 7.55D-01

 Cycle   2  Pass 1  IDiag  1:
 RMSU=  3.42D-04    CP:  9.97D-01
 E= -3128.97675967329     Delta-E=       -0.476091875071 Rises=F Damp=T
 DIIS: error= 1.04D-02 at cycle   2 NSaved=   2.
 NSaved= 2 IEnMin= 2 EnMin= -3128.97675967329     IErMin= 2 ErrMin= 1.04D-02
 ErrMax= 1.04D-02  0.00D+00 EMaxC= 1.00D-01 BMatC= 2.54D+00 BMatP= 7.14D+00
 IDIUse=3 WtCom= 8.96D-01 WtEn= 1.04D-01
 Coeff-Com: -0.115D+01 0.215D+01
 Coeff-En:   0.000D+00 0.100D+01
 Coeff:     -0.103D+01 0.203D+01
 Gap=     0.011 Goal=   None    Shift=    0.000
 Gap=     0.239 Goal=   None    Shift=    0.000
 RMSDP=9.02D-04 MaxDP=1.51D-01 DE=-4.76D-01 OVMax= 7.27D-01

 Cycle   3  Pass 1  IDiag  1:
 RMSU=  6.68D-04    CP:  9.87D-01  2.77D+00
 E= -3129.81378993506     Delta-E=       -0.837030261770 Rises=F Damp=F
 DIIS: error= 1.46D-02 at cycle   3 NSaved=   3.
 NSaved= 3 IEnMin= 3 EnMin= -3129.81378993506     IErMin= 2 ErrMin= 1.04D-02
 ErrMax= 1.46D-02  0.00D+00 EMaxC= 1.00D-01 BMatC= 4.13D-01 BMatP= 2.54D+00
 IDIUse=3 WtCom= 8.54D-01 WtEn= 1.46D-01
 Coeff-Com: -0.583D+00 0.983D+00 0.600D+00
 Coeff-En:   0.000D+00 0.000D+00 0.100D+01
 Coeff:     -0.498D+00 0.840D+00 0.659D+00
 Gap=     0.063 Goal=   None    Shift=    0.000
 Gap=     0.145 Goal=   None    Shift=    0.000
 RMSDP=2.83D-04 MaxDP=7.67D-02 DE=-8.37D-01 OVMax= 2.44D-01

 Cycle   4  Pass 1  IDiag  1:
 RMSU=  2.57D-04    CP:  9.80D-01  2.73D+00  8.27D-01
 E= -3129.88444640742     Delta-E=       -0.070656472359 Rises=F Damp=F
 DIIS: error= 6.56D-03 at cycle   4 NSaved=   4.
 NSaved= 4 IEnMin= 4 EnMin= -3129.88444640742     IErMin= 4 ErrMin= 6.56D-03
 ErrMax= 6.56D-03  0.00D+00 EMaxC= 1.00D-01 BMatC= 9.86D-02 BMatP= 4.13D-01
 IDIUse=3 WtCom= 9.34D-01 WtEn= 6.56D-02
 Coeff-Com: -0.103D+00 0.160D+00 0.345D+00 0.598D+00
 Coeff-En:   0.000D+00 0.000D+00 0.188D+00 0.812D+00
 Coeff:     -0.963D-01 0.150D+00 0.335D+00 0.612D+00
 Gap=     0.086 Goal=   None    Shift=    0.000
 Gap=     0.144 Goal=   None    Shift=    0.000
 RMSDP=1.11D-04 MaxDP=5.35D-02 DE=-7.07D-02 OVMax= 1.18D-01

 Cycle   5  Pass 1  IDiag  1:
 RMSU=  8.66D-05    CP:  9.82D-01  2.74D+00  8.79D-01  7.68D-01
 E= -3129.90595365855     Delta-E=       -0.021507251135 Rises=F Damp=F
 DIIS: error= 8.80D-04 at cycle   5 NSaved=   5.
 NSaved= 5 IEnMin= 5 EnMin= -3129.90595365855     IErMin= 5 ErrMin= 8.80D-04
 ErrMax= 8.80D-04  0.00D+00 EMaxC= 1.00D-01 BMatC= 5.76D-03 BMatP= 9.86D-02
 IDIUse=3 WtCom= 9.91D-01 WtEn= 8.80D-03
 Coeff-Com: -0.205D-01 0.279D-01 0.122D+00 0.297D+00 0.574D+00
 Coeff-En:   0.000D+00 0.000D+00 0.000D+00 0.000D+00 0.100D+01
 Coeff:     -0.203D-01 0.276D-01 0.121D+00 0.295D+00 0.577D+00
 Gap=     0.091 Goal=   None    Shift=    0.000
 Gap=     0.142 Goal=   None    Shift=    0.000
 RMSDP=3.71D-05 MaxDP=1.73D-02 DE=-2.15D-02 OVMax= 1.73D-02

 Cycle   6  Pass 1  IDiag  1:
 RMSU=  3.34D-05    CP:  9.81D-01  2.74D+00  8.70D-01  8.26D-01  9.95D-01
 E= -3129.90749997884     Delta-E=       -0.001546320285 Rises=F Damp=F
 DIIS: error= 3.14D-04 at cycle   6 NSaved=   6.
 NSaved= 6 IEnMin= 6 EnMin= -3129.90749997884     IErMin= 6 ErrMin= 3.14D-04
 ErrMax= 3.14D-04  0.00D+00 EMaxC= 1.00D-01 BMatC= 7.00D-04 BMatP= 5.76D-03
 IDIUse=3 WtCom= 9.97D-01 WtEn= 3.14D-03
 Coeff-Com:  0.306D-02-0.608D-02-0.553D-02 0.303D-01 0.257D+00 0.721D+00
 Coeff-En:   0.000D+00 0.000D+00 0.000D+00 0.000D+00 0.000D+00 0.100D+01
 Coeff:      0.305D-02-0.606D-02-0.551D-02 0.302D-01 0.256D+00 0.722D+00
 Gap=     0.095 Goal=   None    Shift=    0.000
 Gap=     0.143 Goal=   None    Shift=    0.000
 RMSDP=2.55D-05 MaxDP=1.40D-02 DE=-1.55D-03 OVMax= 2.32D-02

 Cycle   7  Pass 1  IDiag  1:
 RMSU=  1.62D-05    CP:  9.81D-01  2.74D+00  8.77D-01  8.31D-01  1.21D+00
                    CP:  1.05D+00
 E= -3129.90786906413     Delta-E=       -0.000369085288 Rises=F Damp=F
 DIIS: error= 2.01D-04 at cycle   7 NSaved=   7.
 NSaved= 7 IEnMin= 7 EnMin= -3129.90786906413     IErMin= 7 ErrMin= 2.01D-04
 ErrMax= 2.01D-04  0.00D+00 EMaxC= 1.00D-01 BMatC= 1.72D-04 BMatP= 7.00D-04
 IDIUse=3 WtCom= 9.98D-01 WtEn= 2.01D-03
 Coeff-Com:  0.397D-02-0.625D-02-0.274D-01-0.377D-01 0.206D-01 0.326D+00
 Coeff-Com:  0.721D+00
 Coeff-En:   0.000D+00 0.000D+00 0.000D+00 0.000D+00 0.000D+00 0.000D+00
 Coeff-En:   0.100D+01
 Coeff:      0.396D-02-0.623D-02-0.273D-01-0.376D-01 0.206D-01 0.325D+00
 Coeff:      0.721D+00
 Gap=     0.098 Goal=   None    Shift=    0.000
 Gap=     0.144 Goal=   None    Shift=    0.000
 RMSDP=1.46D-05 MaxDP=3.99D-03 DE=-3.69D-04 OVMax= 1.57D-02

 Cycle   8  Pass 1  IDiag  1:
 RMSU=  7.75D-06    CP:  9.81D-01  2.74D+00  8.77D-01  8.44D-01  1.30D+00
                    CP:  1.26D+00  1.38D+00
 E= -3129.90801546972     Delta-E=       -0.000146405591 Rises=F Damp=F
 DIIS: error= 1.34D-04 at cycle   8 NSaved=   8.
 NSaved= 8 IEnMin= 8 EnMin= -3129.90801546972     IErMin= 8 ErrMin= 1.34D-04
 ErrMax= 1.34D-04  0.00D+00 EMaxC= 1.00D-01 BMatC= 5.72D-05 BMatP= 1.72D-04
 IDIUse=3 WtCom= 9.99D-01 WtEn= 1.34D-03
 Coeff-Com: -0.861D-03 0.148D-02-0.117D-01-0.208D-01-0.590D-01-0.814D-01
 Coeff-Com:  0.280D+00 0.892D+00
 Coeff-En:   0.000D+00 0.000D+00 0.000D+00 0.000D+00 0.000D+00 0.000D+00
 Coeff-En:   0.000D+00 0.100D+01
 Coeff:     -0.860D-03 0.148D-02-0.116D-01-0.208D-01-0.589D-01-0.813D-01
 Coeff:      0.280D+00 0.892D+00
 Gap=     0.099 Goal=   None    Shift=    0.000
 Gap=     0.144 Goal=   None    Shift=    0.000
 RMSDP=1.30D-05 MaxDP=4.05D-03 DE=-1.46D-04 OVMax= 1.73D-02

 Cycle   9  Pass 1  IDiag  1:
 RMSU=  4.73D-06    CP:  9.81D-01  2.74D+00  8.78D-01  8.47D-01  1.36D+00
                    CP:  1.38D+00  1.88D+00  1.68D+00
 E= -3129.90810471995     Delta-E=       -0.000089250232 Rises=F Damp=F
 DIIS: error= 9.65D-05 at cycle   9 NSaved=   9.
 NSaved= 9 IEnMin= 9 EnMin= -3129.90810471995     IErMin= 9 ErrMin= 9.65D-05
 ErrMax= 9.65D-05  0.00D+00 EMaxC= 1.00D-01 BMatC= 2.43D-05 BMatP= 5.72D-05
 IDIUse=1 WtCom= 1.00D+00 WtEn= 0.00D+00
 Coeff-Com: -0.193D-02 0.288D-02 0.379D-02 0.105D-01-0.911D-02-0.122D+00
 Coeff-Com: -0.224D+00 0.277D+00 0.106D+01
 Coeff:     -0.193D-02 0.288D-02 0.379D-02 0.105D-01-0.911D-02-0.122D+00
 Coeff:     -0.224D+00 0.277D+00 0.106D+01
 Gap=     0.100 Goal=   None    Shift=    0.000
 Gap=     0.144 Goal=   None    Shift=    0.000
 RMSDP=1.16D-05 MaxDP=2.46D-03 DE=-8.93D-05 OVMax= 1.67D-02

 Cycle  10  Pass 1  IDiag  1:
 RMSU=  2.99D-06    CP:  9.81D-01  2.74D+00  8.78D-01  8.47D-01  1.40D+00
                    CP:  1.47D+00  2.25D+00  2.59D+00  1.95D+00
 E= -3129.90816062907     Delta-E=       -0.000055909119 Rises=F Damp=F
 DIIS: error= 5.70D-05 at cycle  10 NSaved=  10.
 NSaved=10 IEnMin=10 EnMin= -3129.90816062907     IErMin=10 ErrMin= 5.70D-05
 ErrMax= 5.70D-05  0.00D+00 EMaxC= 1.00D-01 BMatC= 1.08D-05 BMatP= 2.43D-05
 IDIUse=1 WtCom= 1.00D+00 WtEn= 0.00D+00
 Coeff-Com: -0.760D-03 0.101D-02 0.490D-02 0.141D-01 0.234D-01-0.246D-01
 Coeff-Com: -0.251D+00-0.160D+00 0.476D+00 0.917D+00
 Coeff:     -0.760D-03 0.101D-02 0.490D-02 0.141D-01 0.234D-01-0.246D-01
 Coeff:     -0.251D+00-0.160D+00 0.476D+00 0.917D+00
 Gap=     0.101 Goal=   None    Shift=    0.000
 Gap=     0.144 Goal=   None    Shift=    0.000
 RMSDP=8.84D-06 MaxDP=2.08D-03 DE=-5.59D-05 OVMax= 1.30D-02

 Cycle  11  Pass 1  IDiag  1:
 RMSU=  2.67D-06    CP:  9.81D-01  2.74D+00  8.77D-01  8.47D-01  1.42D+00
                    CP:  1.52D+00  2.48D+00  3.00D+00  2.89D+00  1.91D+00
 E= -3129.90818959258     Delta-E=       -0.000028963512 Rises=F Damp=F
 DIIS: error= 4.04D-05 at cycle  11 NSaved=  11.
 NSaved=11 IEnMin=11 EnMin= -3129.90818959258     IErMin=11 ErrMin= 4.04D-05
 ErrMax= 4.04D-05  0.00D+00 EMaxC= 1.00D-01 BMatC= 3.67D-06 BMatP= 1.08D-05
 IDIUse=1 WtCom= 1.00D+00 WtEn= 0.00D+00
 Coeff-Com:  0.537D-03-0.856D-03-0.236D-02-0.213D-02 0.128D-01 0.635D-01
 Coeff-Com:  0.455D-01-0.980D-01-0.488D+00 0.106D+00 0.136D+01
 Coeff:      0.537D-03-0.856D-03-0.236D-02-0.213D-02 0.128D-01 0.635D-01
 Coeff:      0.455D-01-0.980D-01-0.488D+00 0.106D+00 0.136D+01
 Gap=     0.101 Goal=   None    Shift=    0.000
 Gap=     0.143 Goal=   None    Shift=    0.000
 RMSDP=8.46D-06 MaxDP=2.23D-03 DE=-2.90D-05 OVMax= 1.28D-02

 Cycle  12  Pass 1  IDiag  1:
 RMSU=  4.53D-06    CP:  9.81D-01  2.74D+00  8.77D-01  8.45D-01  1.43D+00
                    CP:  1.54D+00  2.63D+00  3.00D+00  3.00D+00  3.00D+00
                    CP:  2.87D+00
 E= -3129.90820655647     Delta-E=       -0.000016963890 Rises=F Damp=F
 DIIS: error= 1.91D-05 at cycle  12 NSaved=  12.
 NSaved=12 IEnMin=12 EnMin= -3129.90820655647     IErMin=12 ErrMin= 1.91D-05
 ErrMax= 1.91D-05  0.00D+00 EMaxC= 1.00D-01 BMatC= 1.48D-06 BMatP= 3.67D-06
 IDIUse=1 WtCom= 1.00D+00 WtEn= 0.00D+00
 Coeff-Com:  0.419D-03-0.636D-03-0.313D-02-0.543D-02-0.141D-02 0.354D-01
 Coeff-Com:  0.878D-01 0.316D-01-0.367D+00-0.286D+00 0.651D+00 0.858D+00
 Coeff:      0.419D-03-0.636D-03-0.313D-02-0.543D-02-0.141D-02 0.354D-01
 Coeff:      0.878D-01 0.316D-01-0.367D+00-0.286D+00 0.651D+00 0.858D+00
 Gap=     0.102 Goal=   None    Shift=    0.000
 Gap=     0.143 Goal=   None    Shift=    0.000
 RMSDP=4.30D-06 MaxDP=1.14D-03 DE=-1.70D-05 OVMax= 6.42D-03

 Cycle  13  Pass 1  IDiag  1:
 RMSU=  2.95D-06    CP:  9.81D-01  2.74D+00  8.76D-01  8.45D-01  1.44D+00
                    CP:  1.56D+00  2.69D+00  3.00D+00  3.00D+00  3.00D+00
                    CP:  3.00D+00  1.58D+00
 E= -3129.90821100254     Delta-E=       -0.000004446068 Rises=F Damp=F
 DIIS: error= 1.55D-05 at cycle  13 NSaved=  13.
 NSaved=13 IEnMin=13 EnMin= -3129.90821100254     IErMin=13 ErrMin= 1.55D-05
 ErrMax= 1.55D-05  0.00D+00 EMaxC= 1.00D-01 BMatC= 3.72D-07 BMatP= 1.48D-06
 IDIUse=1 WtCom= 1.00D+00 WtEn= 0.00D+00
 Coeff-Com: -0.138D-03 0.210D-03-0.492D-03-0.107D-02-0.460D-02-0.952D-02
 Coeff-Com:  0.111D-01 0.569D-01 0.310D-01-0.156D+00-0.220D+00 0.255D+00
 Coeff-Com:  0.104D+01
 Coeff:     -0.138D-03 0.210D-03-0.492D-03-0.107D-02-0.460D-02-0.952D-02
 Coeff:      0.111D-01 0.569D-01 0.310D-01-0.156D+00-0.220D+00 0.255D+00
 Coeff:      0.104D+01
 Gap=     0.102 Goal=   None    Shift=    0.000
 Gap=     0.143 Goal=   None    Shift=    0.000
 RMSDP=2.58D-06 MaxDP=5.79D-04 DE=-4.45D-06 OVMax= 3.90D-03

 Cycle  14  Pass 1  IDiag  1:
 RMSU=  4.44D-07    CP:  9.81D-01  2.74D+00  8.76D-01  8.44D-01  1.44D+00
                    CP:  1.56D+00  2.72D+00  3.00D+00  3.00D+00  3.00D+00
                    CP:  3.00D+00  1.91D+00  1.65D+00
 E= -3129.90821237730     Delta-E=       -0.000001374765 Rises=F Damp=F
 DIIS: error= 5.23D-06 at cycle  14 NSaved=  14.
 NSaved=14 IEnMin=14 EnMin= -3129.90821237730     IErMin=14 ErrMin= 5.23D-06
 ErrMax= 5.23D-06  0.00D+00 EMaxC= 1.00D-01 BMatC= 1.14D-07 BMatP= 3.72D-07
 IDIUse=1 WtCom= 1.00D+00 WtEn= 0.00D+00
 Coeff-Com: -0.161D-03 0.242D-03 0.545D-03 0.108D-02-0.997D-03-0.130D-01
 Coeff-Com: -0.213D-01 0.158D-01 0.106D+00 0.169D-01-0.241D+00-0.158D+00
 Coeff-Com:  0.370D+00 0.923D+00
 Coeff:     -0.161D-03 0.242D-03 0.545D-03 0.108D-02-0.997D-03-0.130D-01
 Coeff:     -0.213D-01 0.158D-01 0.106D+00 0.169D-01-0.241D+00-0.158D+00
 Coeff:      0.370D+00 0.923D+00
 Gap=     0.102 Goal=   None    Shift=    0.000
 Gap=     0.143 Goal=   None    Shift=    0.000
 RMSDP=1.10D-06 MaxDP=2.63D-04 DE=-1.37D-06 OVMax= 1.65D-03

 Cycle  15  Pass 1  IDiag  1:
 RMSU=  2.34D-07    CP:  9.81D-01  2.74D+00  8.76D-01  8.44D-01  1.44D+00
                    CP:  1.57D+00  2.73D+00  3.00D+00  3.00D+00  3.00D+00
                    CP:  3.00D+00  2.05D+00  1.93D+00  1.57D+00
 E= -3129.90821267236     Delta-E=       -0.000000295053 Rises=F Damp=F
 DIIS: error= 2.97D-06 at cycle  15 NSaved=  15.
 NSaved=15 IEnMin=15 EnMin= -3129.90821267236     IErMin=15 ErrMin= 2.97D-06
 ErrMax= 2.97D-06  0.00D+00 EMaxC= 1.00D-01 BMatC= 4.25D-08 BMatP= 1.14D-07
 IDIUse=1 WtCom= 1.00D+00 WtEn= 0.00D+00
 Coeff-Com: -0.191D-04 0.281D-04 0.393D-03 0.870D-03 0.134D-02-0.236D-02
 Coeff-Com: -0.139D-01-0.138D-01 0.336D-01 0.669D-01-0.186D-01-0.181D+00
 Coeff-Com: -0.248D+00 0.431D+00 0.944D+00
 Coeff:     -0.191D-04 0.281D-04 0.393D-03 0.870D-03 0.134D-02-0.236D-02
 Coeff:     -0.139D-01-0.138D-01 0.336D-01 0.669D-01-0.186D-01-0.181D+00
 Coeff:     -0.248D+00 0.431D+00 0.944D+00
 Gap=     0.102 Goal=   None    Shift=    0.000
 Gap=     0.143 Goal=   None    Shift=    0.000
 RMSDP=6.78D-07 MaxDP=1.43D-04 DE=-2.95D-07 OVMax= 9.60D-04

 Cycle  16  Pass 1  IDiag  1:
 RMSU=  1.21D-07    CP:  9.81D-01  2.74D+00  8.76D-01  8.44D-01  1.44D+00
                    CP:  1.57D+00  2.74D+00  3.00D+00  3.00D+00  3.00D+00
                    CP:  3.00D+00  2.13D+00  2.08D+00  2.07D+00  1.61D+00
 E= -3129.90821275668     Delta-E=       -0.000000084323 Rises=F Damp=F
 DIIS: error= 1.13D-06 at cycle  16 NSaved=  16.
 NSaved=16 IEnMin=16 EnMin= -3129.90821275668     IErMin=16 ErrMin= 1.13D-06
 ErrMax= 1.13D-06  0.00D+00 EMaxC= 1.00D-01 BMatC= 1.04D-08 BMatP= 4.25D-08
 IDIUse=1 WtCom= 1.00D+00 WtEn= 0.00D+00
 Coeff-Com:  0.262D-04-0.384D-04-0.200D-05 0.463D-04 0.866D-03 0.293D-02
 Coeff-Com:  0.931D-03-0.980D-02-0.178D-01 0.226D-01 0.629D-01-0.243D-01
 Coeff-Com: -0.196D+00-0.772D-01 0.374D+00 0.861D+00
 Coeff:      0.262D-04-0.384D-04-0.200D-05 0.463D-04 0.866D-03 0.293D-02
 Coeff:      0.931D-03-0.980D-02-0.178D-01 0.226D-01 0.629D-01-0.243D-01
 Coeff:     -0.196D+00-0.772D-01 0.374D+00 0.861D+00
 Gap=     0.102 Goal=   None    Shift=    0.000
 Gap=     0.143 Goal=   None    Shift=    0.000
 RMSDP=1.62D-07 MaxDP=3.09D-05 DE=-8.43D-08 OVMax= 1.10D-04

 Cycle  17  Pass 1  IDiag  1:
 RMSU=  6.47D-08    CP:  9.81D-01  2.74D+00  8.76D-01  8.44D-01  1.44D+00
                    CP:  1.57D+00  2.74D+00  3.00D+00  3.00D+00  3.00D+00
                    CP:  3.00D+00  2.14D+00  2.10D+00  2.26D+00  1.98D+00
                    CP:  1.40D+00
 E= -3129.90821276944     Delta-E=       -0.000000012758 Rises=F Damp=F
 DIIS: error= 7.09D-07 at cycle  17 NSaved=  17.
 NSaved=17 IEnMin=17 EnMin= -3129.90821276944     IErMin=17 ErrMin= 7.09D-07
 ErrMax= 7.09D-07  0.00D+00 EMaxC= 1.00D-01 BMatC= 3.52D-09 BMatP= 1.04D-08
 IDIUse=1 WtCom= 1.00D+00 WtEn= 0.00D+00
 Coeff-Com:  0.185D-04-0.280D-04-0.924D-04-0.183D-03 0.862D-04 0.202D-02
 Coeff-Com:  0.380D-02-0.168D-02-0.172D-01-0.500D-02 0.354D-01 0.382D-01
 Coeff-Com: -0.327D-01-0.161D+00-0.787D-01 0.426D+00 0.790D+00
 Coeff:      0.185D-04-0.280D-04-0.924D-04-0.183D-03 0.862D-04 0.202D-02
 Coeff:      0.380D-02-0.168D-02-0.172D-01-0.500D-02 0.354D-01 0.382D-01
 Coeff:     -0.327D-01-0.161D+00-0.787D-01 0.426D+00 0.790D+00
 Gap=     0.102 Goal=   None    Shift=    0.000
 Gap=     0.143 Goal=   None    Shift=    0.000
 RMSDP=8.05D-08 MaxDP=1.56D-05 DE=-1.28D-08 OVMax= 3.87D-05

 Cycle  18  Pass 1  IDiag  1:
 RMSU=  3.18D-08    CP:  9.81D-01  2.74D+00  8.76D-01  8.44D-01  1.44D+00
                    CP:  1.57D+00  2.74D+00  3.00D+00  3.00D+00  3.00D+00
                    CP:  3.00D+00  2.14D+00  2.10D+00  2.34D+00  2.16D+00
                    CP:  1.74D+00  1.36D+00
 E= -3129.90821277271     Delta-E=       -0.000000003272 Rises=F Damp=F
 DIIS: error= 4.75D-07 at cycle  18 NSaved=  18.
 NSaved=18 IEnMin=18 EnMin= -3129.90821277271     IErMin=18 ErrMin= 4.75D-07
 ErrMax= 4.75D-07  0.00D+00 EMaxC= 1.00D-01 BMatC= 9.86D-10 BMatP= 3.52D-09
 IDIUse=1 WtCom= 1.00D+00 WtEn= 0.00D+00
 Coeff-Com:  0.222D-05-0.412D-05-0.348D-04-0.838D-04-0.173D-03 0.148D-03
 Coeff-Com:  0.130D-02 0.153D-02-0.298D-02-0.715D-02-0.517D-04 0.243D-01
 Coeff-Com:  0.321D-01-0.549D-01-0.135D+00-0.256D-01 0.393D+00 0.774D+00
 Coeff:      0.222D-05-0.412D-05-0.348D-04-0.838D-04-0.173D-03 0.148D-03
 Coeff:      0.130D-02 0.153D-02-0.298D-02-0.715D-02-0.517D-04 0.243D-01
 Coeff:      0.321D-01-0.549D-01-0.135D+00-0.256D-01 0.393D+00 0.774D+00
 Gap=     0.102 Goal=   None    Shift=    0.000
 Gap=     0.143 Goal=   None    Shift=    0.000
 RMSDP=3.88D-08 MaxDP=8.67D-06 DE=-3.27D-09 OVMax= 1.95D-05

 Cycle  19  Pass 1  IDiag  1:
 RMSU=  1.77D-08    CP:  9.81D-01  2.74D+00  8.76D-01  8.44D-01  1.44D+00
                    CP:  1.57D+00  2.74D+00  3.00D+00  3.00D+00  3.00D+00
                    CP:  3.00D+00  2.14D+00  2.10D+00  2.38D+00  2.23D+00
                    CP:  1.87D+00  1.64D+00  1.25D+00
 E= -3129.90821277352     Delta-E=       -0.000000000811 Rises=F Damp=F
 DIIS: error= 2.20D-07 at cycle  19 NSaved=  19.
 NSaved=19 IEnMin=19 EnMin= -3129.90821277352     IErMin=19 ErrMin= 2.20D-07
 ErrMax= 2.20D-07  0.00D+00 EMaxC= 1.00D-01 BMatC= 3.01D-10 BMatP= 9.86D-10
 IDIUse=1 WtCom= 1.00D+00 WtEn= 0.00D+00
 Coeff-Com: -0.448D-05 0.650D-05 0.754D-05 0.391D-05-0.122D-03-0.484D-03
 Coeff-Com: -0.324D-03 0.138D-02 0.328D-02-0.262D-02-0.100D-01 0.322D-02
 Coeff-Com:  0.267D-01 0.174D-01-0.533D-01-0.141D+00-0.103D-01 0.427D+00
 Coeff-Com:  0.739D+00
 Coeff:     -0.448D-05 0.650D-05 0.754D-05 0.391D-05-0.122D-03-0.484D-03
 Coeff:     -0.324D-03 0.138D-02 0.328D-02-0.262D-02-0.100D-01 0.322D-02
 Coeff:      0.267D-01 0.174D-01-0.533D-01-0.141D+00-0.103D-01 0.427D+00
 Coeff:      0.739D+00
 Gap=     0.102 Goal=   None    Shift=    0.000
 Gap=     0.143 Goal=   None    Shift=    0.000
 RMSDP=2.20D-08 MaxDP=4.20D-06 DE=-8.11D-10 OVMax= 1.90D-05

 Cycle  20  Pass 1  IDiag  1:
 RMSU=  8.52D-09    CP:  9.81D-01  2.74D+00  8.76D-01  8.44D-01  1.44D+00
                    CP:  1.57D+00  2.74D+00  3.00D+00  3.00D+00  3.00D+00
                    CP:  3.00D+00  2.14D+00  2.10D+00  2.39D+00  2.25D+00
                    CP:  1.93D+00  1.76D+00  1.56D+00  1.31D+00
 E= -3129.90821277389     Delta-E=       -0.000000000371 Rises=F Damp=F
 DIIS: error= 6.14D-08 at cycle  20 NSaved=  20.
 NSaved=20 IEnMin=20 EnMin= -3129.90821277389     IErMin=20 ErrMin= 6.14D-08
 ErrMax= 6.14D-08  0.00D+00 EMaxC= 1.00D-01 BMatC= 4.68D-11 BMatP= 3.01D-10
 IDIUse=1 WtCom= 1.00D+00 WtEn= 0.00D+00
 Coeff-Com: -0.155D-05 0.248D-05 0.117D-04 0.191D-04-0.117D-04-0.232D-03
 Coeff-Com: -0.437D-03 0.156D-03 0.203D-02 0.560D-03-0.394D-02-0.422D-02
 Coeff-Com:  0.209D-02 0.198D-01 0.999D-02-0.473D-01-0.913D-01-0.141D-01
 Coeff-Com:  0.273D+00 0.854D+00
 Coeff:     -0.155D-05 0.248D-05 0.117D-04 0.191D-04-0.117D-04-0.232D-03
 Coeff:     -0.437D-03 0.156D-03 0.203D-02 0.560D-03-0.394D-02-0.422D-02
 Coeff:      0.209D-02 0.198D-01 0.999D-02-0.473D-01-0.913D-01-0.141D-01
 Coeff:      0.273D+00 0.854D+00
 Gap=     0.102 Goal=   None    Shift=    0.000
 Gap=     0.143 Goal=   None    Shift=    0.000
 RMSDP=1.02D-08 MaxDP=4.10D-06 DE=-3.71D-10 OVMax= 6.88D-06

 Cycle  21  Pass 1  IDiag  1:
 Restarting incremental Fock formation.
 E= -3129.90821277371     Delta-E=        0.000000000180 Rises=F Damp=F
 DIIS: error= 2.93D-08 at cycle  21 NSaved=  20.
 NSaved=20 IEnMin=19 EnMin= -3129.90821277389     IErMin=20 ErrMin= 2.93D-08
 ErrMax= 2.93D-08  0.00D+00 EMaxC= 1.00D-01 BMatC= 1.24D-11 BMatP= 4.68D-11
 IDIUse=1 WtCom= 1.00D+00 WtEn= 0.00D+00
 Coeff-Com:  0.230D-06 0.461D-05 0.816D-05 0.195D-04-0.380D-05-0.138D-03
 Coeff-Com: -0.229D-03 0.256D-03 0.772D-03 0.396D-03-0.234D-02-0.481D-02
 Coeff-Com:  0.484D-02 0.145D-01 0.110D-01-0.331D-01-0.965D-01-0.526D-01
 Coeff-Com:  0.330D+00 0.828D+00
 Coeff:      0.230D-06 0.461D-05 0.816D-05 0.195D-04-0.380D-05-0.138D-03
 Coeff:     -0.229D-03 0.256D-03 0.772D-03 0.396D-03-0.234D-02-0.481D-02
 Coeff:      0.484D-02 0.145D-01 0.110D-01-0.331D-01-0.965D-01-0.526D-01
 Coeff:      0.330D+00 0.828D+00
 Gap=     0.102 Goal=   None    Shift=    0.000
 Gap=     0.143 Goal=   None    Shift=    0.000
 RMSDP=6.41D-09 MaxDP=2.28D-06 DE= 1.80D-10 OVMax= 4.55D-06

 Cycle  22  Pass 1  IDiag  1:
 RMSU=  6.41D-09    CP:  1.00D+00
 E= -3129.90821277365     Delta-E=        0.000000000062 Rises=F Damp=F
 DIIS: error= 1.77D-08 at cycle  22 NSaved=  20.
 NSaved=20 IEnMin=18 EnMin= -3129.90821277389     IErMin=20 ErrMin= 1.77D-08
 ErrMax= 1.77D-08  0.00D+00 EMaxC= 1.00D-01 BMatC= 4.03D-12 BMatP= 1.24D-11
 IDIUse=1 WtCom= 1.00D+00 WtEn= 0.00D+00
 Coeff-Com: -0.653D-06-0.120D-05 0.904D-05 0.531D-04 0.574D-04-0.114D-03
 Coeff-Com: -0.379D-03 0.789D-04 0.103D-02 0.349D-03-0.198D-02-0.303D-02
 Coeff-Com:  0.200D-02 0.162D-01 0.116D-01-0.337D-01-0.946D-01-0.109D+00
 Coeff-Com:  0.327D+00 0.885D+00
 Coeff:     -0.653D-06-0.120D-05 0.904D-05 0.531D-04 0.574D-04-0.114D-03
 Coeff:     -0.379D-03 0.789D-04 0.103D-02 0.349D-03-0.198D-02-0.303D-02
 Coeff:      0.200D-02 0.162D-01 0.116D-01-0.337D-01-0.946D-01-0.109D+00
 Coeff:      0.327D+00 0.885D+00
 Gap=     0.102 Goal=   None    Shift=    0.000
 Gap=     0.143 Goal=   None    Shift=    0.000
 RMSDP=4.05D-09 MaxDP=1.57D-06 DE= 6.18D-11 OVMax= 3.19D-06

 Cycle  23  Pass 1  IDiag  1:
 RMSU=  1.70D-09    CP:  1.00D+00  1.57D+00
 E= -3129.90821277361     Delta-E=        0.000000000040 Rises=F Damp=F
 DIIS: error= 1.19D-08 at cycle  23 NSaved=  20.
 NSaved=20 IEnMin=17 EnMin= -3129.90821277389     IErMin=20 ErrMin= 1.19D-08
 ErrMax= 1.19D-08  0.00D+00 EMaxC= 1.00D-01 BMatC= 1.31D-12 BMatP= 4.03D-12
 IDIUse=1 WtCom= 1.00D+00 WtEn= 0.00D+00
 Coeff-Com:  0.711D-06 0.255D-05 0.116D-04 0.887D-05-0.310D-04-0.920D-04
 Coeff-Com: -0.875D-05 0.149D-03 0.312D-03 0.690D-04-0.135D-02-0.188D-02
 Coeff-Com:  0.222D-02 0.964D-02 0.115D-01-0.140D-01-0.112D+00-0.129D+00
 Coeff-Com:  0.271D+00 0.964D+00
 Coeff:      0.711D-06 0.255D-05 0.116D-04 0.887D-05-0.310D-04-0.920D-04
 Coeff:     -0.875D-05 0.149D-03 0.312D-03 0.690D-04-0.135D-02-0.188D-02
 Coeff:      0.222D-02 0.964D-02 0.115D-01-0.140D-01-0.112D+00-0.129D+00
 Coeff:      0.271D+00 0.964D+00
 Gap=     0.102 Goal=   None    Shift=    0.000
 Gap=     0.143 Goal=   None    Shift=    0.000
 RMSDP=3.03D-09 MaxDP=1.37D-06 DE= 4.00D-11 OVMax= 2.32D-06

 Cycle  24  Pass 1  IDiag  1:
 RMSU=  2.29D-09    CP:  1.00D+00  1.81D+00  1.75D+00
 E= -3129.90821277384     Delta-E=       -0.000000000229 Rises=F Damp=F
 DIIS: error= 6.32D-09 at cycle  24 NSaved=  20.
 NSaved=20 IEnMin=16 EnMin= -3129.90821277389     IErMin=20 ErrMin= 6.32D-09
 ErrMax= 6.32D-09  0.00D+00 EMaxC= 1.00D-01 BMatC= 5.57D-13 BMatP= 1.31D-12
 IDIUse=1 WtCom= 1.00D+00 WtEn= 0.00D+00
 Coeff-Com: -0.582D-05-0.196D-04-0.624D-05 0.665D-04 0.106D-03-0.116D-03
 Coeff-Com: -0.414D-03 0.207D-03 0.129D-02 0.388D-03-0.278D-02-0.621D-02
 Coeff-Com:  0.164D-02 0.232D-01 0.323D-01-0.215D-01-0.208D+00-0.225D+00
 Coeff-Com:  0.430D+00 0.974D+00
 Coeff:     -0.582D-05-0.196D-04-0.624D-05 0.665D-04 0.106D-03-0.116D-03
 Coeff:     -0.414D-03 0.207D-03 0.129D-02 0.388D-03-0.278D-02-0.621D-02
 Coeff:      0.164D-02 0.232D-01 0.323D-01-0.215D-01-0.208D+00-0.225D+00
 Coeff:      0.430D+00 0.974D+00
 Gap=     0.102 Goal=   None    Shift=    0.000
 Gap=     0.143 Goal=   None    Shift=    0.000
 RMSDP=2.11D-09 MaxDP=7.36D-07 DE=-2.29D-10 OVMax= 1.79D-06

 Error on total polarization charges =  0.02904
 SCF Done:  E(UM062X) =  -3129.90821277     A.U. after   24 cycles
            NFock= 24  Conv=0.21D-08     -V/T= 2.1390
 <Sx>= 0.0000 <Sy>= 0.0000 <Sz>= 0.5000 <S**2>= 0.7781 S= 0.5140
 <L.S>=  0.00000000000    
 KE= 2.747861974807D+03 PE=-2.545915020140D+04 EE= 1.045791372640D+04
 Annihilation of the first spin contaminant:
 S**2 before annihilation     0.7781,   after     0.7507
 Leave Link  502 at Sun Oct 12 06:44:17 2025, MaxMem= 30870077440 cpu:          286729.6 elap:            4534.3
 (Enter /work/home/accqbws0vm/apprepo/gaussian/16-hy/scripts/../app/g16/l601.exe)
 Copying SCF densities to generalized density rwf, IOpCl= 1 IROHF=0.

 **********************************************************************

            Population analysis using the SCF density.

 **********************************************************************

 Orbital symmetries:
 Alpha Orbitals:
       Occupied  (A) (A) (A) (A) (A) (A) (A) (A) (A) (A) (A) (A)
                 (A) (A) (A) (A) (A) (A) (A) (A) (A) (A) (A) (A)
                 (A) (A) (A) (A) (A) (A) (A) (A) (A) (A) (A) (A)
                 (A) (A) (A) (A) (A) (A) (A) (A) (A) (A) (A) (A)
                 (A) (A) (A) (A) (A) (A) (A) (A) (A) (A) (A) (A)
                 (A) (A) (A) (A) (A) (A) (A) (A) (A) (A) (A) (A)
                 (A) (A) (A) (A) (A) (A) (A) (A) (A) (A) (A) (A)
                 (A) (A) (A) (A) (A) (A) (A) (A) (A) (A) (A) (A)
                 (A) (A) (A) (A) (A) (A) (A) (A) (A) (A) (A) (A)
                 (A) (A) (A) (A) (A) (A) (A) (A) (A) (A) (A) (A)
                 (A) (A) (A) (A) (A) (A) (A) (A) (A) (A) (A) (A)
                 (A) (A) (A) (A) (A) (A) (A) (A) (A) (A) (A) (A)
                 (A) (A) (A) (A) (A) (A) (A) (A) (A) (A) (A) (A)
                 (A) (A) (A) (A) (A) (A) (A) (A) (A) (A) (A) (A)
                 (A) (A) (A) (A) (A) (A) (A) (A) (A) (A) (A) (A)
                 (A) (A) (A) (A) (A) (A) (A) (A) (A) (A) (A) (A)
                 (A) (A) (A) (A) (A) (A) (A) (A) (A) (A) (A) (A)
                 (A) (A) (A) (A) (A) (A) (A) (A) (A) (A) (A) (A)
                 (A) (A) (A) (A) (A) (A) (A)
       Virtual   (A) (A) (A) (A) (A) (A) (A) (A) (A) (A) (A) (A)
                 (A) (A) (A) (A) (A) (A) (A) (A) (A) (A) (A) (A)
                 (A) (A) (A) (A) (A) (A) (A) (A) (A) (A) (A) (A)
                 (A) (A) (A) (A) (A) (A) (A) (A) (A) (A) (A) (A)
                 (A) (A) (A) (A) (A) (A) (A) (A) (A) (A) (A) (A)
                 (A) (A) (A) (A) (A) (A) (A) (A) (A) (A) (A) (A)
                 (A) (A) (A) (A) (A) (A) (A) (A) (A) (A) (A) (A)
                 (A) (A) (A) (A) (A) (A) (A) (A) (A) (A) (A) (A)
                 (A) (A) (A) (A) (A) (A) (A) (A) (A) (A) (A) (A)
                 (A) (A) (A) (A) (A) (A) (A) (A) (A) (A) (A) (A)
                 (A) (A) (A) (A) (A) (A) (A) (A) (A) (A) (A) (A)
                 (A) (A) (A) (A) (A) (A) (A) (A) (A) (A) (A) (A)
                 (A) (A) (A) (A) (A) (A) (A) (A) (A) (A) (A) (A)
                 (A) (A) (A) (A) (A) (A) (A) (A) (A) (A) (A) (A)
                 (A) (A) (A) (A) (A) (A) (A) (A) (A) (A) (A) (A)
                 (A) (A) (A) (A) (A) (A) (A) (A) (A) (A) (A) (A)
                 (A) (A) (A) (A) (A) (A) (A) (A) (A) (A) (A) (A)
                 (A) (A) (A) (A) (A) (A) (A) (A) (A) (A) (A) (A)
                 (A) (A) (A) (A) (A) (A) (A) (A) (A) (A) (A) (A)
                 (A) (A) (A) (A) (A) (A) (A) (A) (A) (A) (A) (A)
                 (A) (A) (A) (A) (A) (A) (A) (A) (A) (A) (A) (A)
                 (A) (A) (A) (A) (A) (A) (A) (A) (A) (A) (A) (A)
                 (A) (A) (A) (A) (A) (A) (A) (A) (A) (A) (A) (A)
                 (A) (A) (A) (A) (A) (A) (A) (A) (A) (A) (A) (A)
                 (A) (A) (A) (A) (A) (A) (A) (A) (A) (A) (A) (A)
                 (A) (A) (A) (A) (A) (A) (A) (A) (A) (A) (A) (A)
                 (A) (A) (A) (A) (A) (A) (A) (A) (A) (A) (A) (A)
                 (A) (A) (A) (A) (A) (A) (A) (A) (A) (A) (A) (A)
                 (A) (A) (A) (A) (A) (A) (A) (A) (A) (A) (A) (A)
                 (A) (A) (A) (A) (A) (A) (A) (A) (A) (A) (A) (A)
                 (A) (A) (A) (A) (A) (A) (A) (A) (A) (A) (A) (A)
                 (A) (A) (A) (A) (A) (A) (A) (A) (A) (A) (A) (A)
                 (A) (A) (A) (A) (A) (A) (A) (A) (A) (A) (A) (A)
                 (A) (A) (A) (A) (A) (A) (A) (A) (A) (A) (A) (A)
                 (A) (A) (A) (A) (A) (A) (A) (A) (A) (A) (A) (A)
                 (A) (A) (A) (A) (A) (A) (A) (A) (A) (A) (A) (A)
                 (A) (A) (A) (A) (A) (A) (A) (A) (A) (A) (A) (A)
                 (A) (A) (A) (A) (A) (A) (A) (A) (A) (A) (A) (A)
                 (A) (A) (A) (A) (A) (A) (A) (A) (A) (A) (A) (A)
                 (A) (A) (A) (A) (A) (A) (A) (A) (A) (A) (A) (A)
                 (A) (A) (A) (A) (A) (A) (A) (A) (A) (A) (A) (A)
                 (A) (A) (A) (A) (A) (A) (A) (A) (A) (A) (A) (A)
                 (A) (A) (A) (A) (A) (A) (A) (A) (A) (A) (A) (A)
                 (A) (A) (A) (A) (A) (A) (A) (A) (A) (A) (A) (A)
                 (A) (A) (A) (A) (A) (A) (A) (A) (A) (A) (A) (A)
                 (A) (A) (A) (A) (A) (A) (A) (A) (A) (A) (A) (A)
                 (A) (A) (A) (A) (A) (A) (A) (A) (A) (A) (A) (A)
                 (A) (A) (A) (A) (A) (A) (A) (A) (A) (A) (A) (A)
                 (A) (A) (A) (A) (A) (A) (A) (A) (A) (A) (A) (A)
                 (A) (A) (A) (A) (A) (A) (A) (A) (A) (A) (A) (A)
                 (A) (A) (A) (A) (A) (A) (A) (A) (A) (A) (A) (A)
                 (A) (A) (A) (A) (A) (A) (A) (A) (A) (A) (A) (A)
                 (A) (A) (A) (A) (A) (A) (A) (A) (A) (A) (A) (A)
                 (A) (A) (A) (A) (A) (A) (A) (A) (A) (A) (A) (A)
                 (A) (A) (A) (A) (A) (A) (A) (A) (A) (A) (A) (A)
                 (A) (A) (A) (A) (A) (A) (A) (A) (A) (A) (A) (A)
                 (A) (A) (A) (A) (A) (A) (A) (A) (A) (A) (A) (A)
                 (A) (A) (A) (A) (A) (A) (A) (A) (A) (A) (A) (A)
                 (A) (A) (A) (A) (A) (A) (A) (A) (A) (A) (A) (A)
                 (A) (A) (A) (A) (A) (A) (A) (A) (A) (A) (A) (A)
                 (A) (A) (A) (A) (A) (A) (A) (A) (A) (A) (A) (A)
                 (A) (A) (A) (A) (A) (A) (A) (A) (A) (A) (A) (A)
                 (A) (A) (A) (A) (A) (A) (A) (A) (A) (A) (A) (A)
                 (A) (A) (A) (A) (A) (A) (A) (A) (A) (A) (A) (A)
                 (A) (A) (A) (A) (A) (A) (A) (A) (A) (A) (A) (A)
                 (A) (A) (A) (A) (A) (A) (A) (A) (A) (A) (A) (A)
                 (A) (A) (A) (A) (A) (A) (A) (A) (A) (A) (A) (A)
                 (A) (A) (A) (A) (A) (A) (A) (A) (A) (A) (A) (A)
                 (A) (A) (A) (A) (A) (A) (A) (A) (A) (A) (A) (A)
                 (A) (A) (A) (A) (A) (A) (A) (A) (A) (A) (A) (A)
                 (A) (A) (A) (A) (A) (A) (A) (A) (A) (A) (A) (A)
                 (A) (A) (A) (A) (A) (A) (A) (A) (A) (A) (A) (A)
                 (A) (A) (A) (A) (A) (A) (A) (A) (A) (A) (A) (A)
                 (A) (A) (A) (A) (A) (A) (A) (A) (A) (A) (A) (A)
                 (A) (A) (A) (A) (A) (A) (A) (A) (A) (A) (A) (A)
                 (A) (A) (A) (A) (A) (A) (A) (A) (A) (A) (A) (A)
                 (A) (A) (A) (A) (A) (A) (A) (A) (A) (A) (A) (A)
                 (A) (A) (A) (A) (A) (A) (A) (A) (A) (A) (A) (A)
                 (A) (A) (A) (A) (A) (A) (A) (A) (A) (A) (A) (A)
                 (A) (A) (A) (A) (A) (A) (A) (A) (A) (A) (A) (A)
                 (A) (A) (A) (A) (A) (A) (A) (A) (A) (A) (A) (A)
                 (A) (A) (A) (A) (A) (A) (A) (A) (A) (A) (A) (A)
                 (A) (A) (A) (A) (A) (A) (A) (A) (A) (A) (A) (A)
                 (A) (A) (A) (A) (A) (A) (A) (A) (A) (A) (A) (A)
                 (A) (A) (A) (A) (A) (A) (A) (A) (A) (A) (A) (A)
                 (A) (A) (A) (A) (A) (A) (A) (A) (A) (A) (A) (A)
                 (A) (A) (A) (A) (A) (A) (A) (A) (A) (A) (A) (A)
                 (A) (A) (A) (A) (A) (A) (A) (A) (A) (A) (A) (A)
                 (A) (A) (A) (A) (A) (A) (A) (A) (A) (A) (A) (A)
                 (A) (A) (A) (A) (A) (A) (A) (A) (A) (A) (A) (A)
                 (A) (A) (A) (A) (A) (A) (A) (A) (A) (A) (A) (A)
                 (A) (A) (A) (A) (A) (A) (A) (A) (A) (A) (A) (A)
                 (A) (A) (A) (A) (A) (A) (A) (A) (A) (A) (A) (A)
                 (A) (A) (A) (A) (A) (A) (A) (A) (A) (A) (A) (A)
                 (A) (A) (A) (A) (A) (A) (A) (A) (A) (A) (A) (A)
                 (A) (A) (A) (A) (A) (A) (A) (A) (A) (A) (A) (A)
                 (A) (A) (A) (A) (A) (A) (A) (A) (A) (A) (A) (A)
                 (A) (A) (A) (A) (A) (A) (A) (A) (A) (A) (A) (A)
                 (A) (A) (A) (A) (A) (A) (A) (A) (A) (A) (A) (A)
                 (A) (A) (A) (A) (A) (A) (A) (A) (A) (A) (A) (A)
                 (A) (A) (A) (A) (A) (A) (A) (A) (A) (A) (A) (A)
                 (A) (A) (A) (A) (A) (A) (A) (A) (A) (A) (A) (A)
                 (A) (A) (A) (A) (A) (A) (A) (A) (A) (A) (A) (A)
                 (A) (A) (A) (A) (A) (A) (A) (A) (A) (A) (A) (A)
                 (A) (A) (A) (A) (A) (A) (A) (A) (A) (A) (A) (A)
                 (A) (A) (A) (A) (A) (A) (A) (A) (A) (A) (A) (A)
                 (A) (A) (A) (A) (A) (A) (A) (A) (A) (A) (A) (A)
                 (A) (A) (A) (A) (A) (A) (A) (A) (A) (A) (A) (A)
                 (A) (A) (A) (A) (A) (A) (A) (A) (A) (A) (A) (A)
                 (A) (A) (A) (A) (A) (A) (A) (A) (A) (A) (A) (A)
                 (A) (A) (A) (A) (A) (A) (A) (A) (A) (A) (A) (A)
                 (A) (A) (A) (A) (A) (A) (A) (A) (A) (A) (A) (A)
                 (A) (A) (A) (A) (A) (A) (A) (A) (A) (A) (A) (A)
                 (A) (A) (A) (A) (A) (A) (A) (A) (A) (A) (A) (A)
                 (A) (A) (A) (A) (A) (A) (A) (A) (A) (A) (A) (A)
                 (A) (A) (A) (A) (A) (A) (A) (A) (A) (A) (A) (A)
                 (A) (A) (A) (A) (A) (A) (A) (A) (A) (A) (A) (A)
                 (A) (A) (A) (A) (A) (A) (A) (A) (A) (A) (A) (A)
                 (A) (A) (A) (A) (A) (A) (A) (A) (A) (A) (A) (A)
                 (A) (A) (A) (A) (A) (A) (A) (A) (A) (A) (A) (A)
                 (A) (A) (A) (A) (A) (A) (A) (A) (A) (A) (A) (A)
                 (A) (A) (A) (A) (A) (A) (A) (A) (A) (A) (A) (A)
                 (A) (A) (A) (A) (A) (A) (A) (A) (A) (A) (A) (A)
                 (A) (A) (A) (A) (A) (A) (A) (A) (A) (A) (A) (A)
                 (A) (A) (A) (A) (A) (A) (A) (A) (A) (A) (A) (A)
                 (A) (A) (A) (A) (A) (A) (A) (A) (A) (A) (A) (A)
                 (A) (A) (A) (A) (A) (A) (A) (A) (A) (A) (A) (A)
                 (A) (A) (A) (A) (A) (A) (A) (A) (A) (A) (A) (A)
                 (A) (A) (A) (A) (A) (A) (A) (A) (A) (A) (A) (A)
                 (A) (A) (A) (A) (A) (A) (A) (A) (A) (A) (A) (A)
                 (A) (A) (A) (A) (A) (A) (A) (A) (A) (A) (A) (A)
                 (A) (A) (A) (A) (A) (A) (A) (A) (A) (A) (A) (A)
                 (A) (A) (A) (A) (A) (A) (A) (A) (A) (A) (A) (A)
                 (A) (A) (A) (A) (A) (A) (A) (A) (A) (A) (A) (A)
                 (A) (A) (A) (A) (A) (A) (A) (A) (A) (A) (A) (A)
                 (A) (A) (A) (A) (A) (A) (A) (A) (A) (A) (A) (A)
                 (A) (A) (A) (A) (A) (A) (A) (A) (A) (A) (A) (A)
                 (A) (A) (A) (A) (A) (A) (A) (A) (A) (A) (A) (A)
                 (A) (A) (A) (A) (A) (A) (A) (A) (A) (A) (A) (A)
                 (A) (A) (A) (A) (A) (A) (A) (A) (A) (A) (A) (A)
                 (A) (A) (A) (A) (A) (A) (A) (A) (A) (A) (A) (A)
                 (A) (A) (A) (A) (A) (A) (A) (A) (A) (A) (A) (A)
                 (A) (A) (A) (A) (A) (A) (A) (A) (A) (A) (A) (A)
                 (A) (A) (A) (A) (A) (A) (A) (A) (A) (A) (A) (A)
                 (A) (A) (A) (A) (A) (A) (A) (A) (A) (A) (A) (A)
                 (A) (A) (A) (A) (A) (A) (A) (A) (A) (A) (A) (A)
                 (A) (A) (A) (A) (A) (A) (A) (A) (A) (A) (A) (A)
                 (A) (A) (A) (A) (A) (A) (A) (A) (A) (A) (A) (A)
                 (A) (A) (A) (A) (A) (A) (A) (A) (A) (A) (A) (A)
                 (A) (A) (A) (A) (A) (A) (A) (A) (A) (A) (A) (A)
                 (A) (A) (A) (A) (A) (A) (A) (A) (A) (A) (A) (A)
                 (A) (A) (A) (A) (A) (A) (A) (A) (A) (A) (A) (A)
                 (A) (A) (A) (A) (A) (A) (A) (A) (A) (A) (A) (A)
                 (A) (A) (A) (A) (A) (A) (A) (A) (A) (A) (A) (A)
                 (A) (A) (A) (A) (A) (A) (A) (A) (A) (A) (A) (A)
                 (A) (A) (A) (A) (A) (A) (A) (A) (A) (A) (A) (A)
                 (A) (A) (A) (A) (A) (A) (A) (A) (A) (A) (A) (A)
                 (A) (A) (A) (A) (A) (A) (A) (A) (A) (A) (A) (A)
                 (A) (A) (A) (A) (A) (A) (A) (A) (A) (A) (A) (A)
                 (A) (A) (A) (A) (A) (A) (A) (A) (A) (A) (A) (A)
                 (A) (A) (A) (A) (A) (A) (A) (A) (A) (A) (A) (A)
                 (A) (A) (A) (A) (A) (A) (A) (A) (A) (A) (A) (A)
                 (A) (A) (A) (A) (A) (A) (A) (A) (A) (A) (A) (A)
                 (A) (A) (A) (A) (A) (A) (A) (A) (A) (A) (A) (A)
                 (A) (A) (A) (A) (A) (A) (A) (A) (A) (A) (A) (A)
                 (A) (A) (A) (A) (A) (A) (A) (A) (A) (A) (A) (A)
                 (A) (A) (A) (A) (A) (A) (A) (A) (A) (A) (A) (A)
                 (A) (A) (A) (A) (A) (A) (A) (A) (A) (A) (A) (A)
                 (A) (A) (A) (A) (A) (A) (A) (A) (A) (A) (A) (A)
                 (A) (A) (A) (A) (A) (A) (A) (A) (A) (A) (A) (A)
                 (A) (A) (A) (A) (A) (A) (A) (A) (A) (A) (A) (A)
                 (A) (A) (A) (A) (A) (A) (A) (A) (A) (A) (A) (A)
                 (A) (A) (A) (A) (A) (A) (A) (A) (A) (A) (A) (A)
                 (A) (A) (A) (A) (A) (A) (A) (A) (A) (A) (A) (A)
                 (A) (A) (A) (A) (A) (A) (A) (A) (A) (A) (A) (A)
                 (A) (A) (A) (A) (A) (A) (A) (A) (A) (A) (A) (A)
                 (A) (A) (A) (A) (A) (A) (A) (A)
 Beta  Orbitals:
       Occupied  (A) (A) (A) (A) (A) (A) (A) (A) (A) (A) (A) (A)
                 (A) (A) (A) (A) (A) (A) (A) (A) (A) (A) (A) (A)
                 (A) (A) (A) (A) (A) (A) (A) (A) (A) (A) (A) (A)
                 (A) (A) (A) (A) (A) (A) (A) (A) (A) (A) (A) (A)
                 (A) (A) (A) (A) (A) (A) (A) (A) (A) (A) (A) (A)
                 (A) (A) (A) (A) (A) (A) (A) (A) (A) (A) (A) (A)
                 (A) (A) (A) (A) (A) (A) (A) (A) (A) (A) (A) (A)
                 (A) (A) (A) (A) (A) (A) (A) (A) (A) (A) (A) (A)
                 (A) (A) (A) (A) (A) (A) (A) (A) (A) (A) (A) (A)
                 (A) (A) (A) (A) (A) (A) (A) (A) (A) (A) (A) (A)
                 (A) (A) (A) (A) (A) (A) (A) (A) (A) (A) (A) (A)
                 (A) (A) (A) (A) (A) (A) (A) (A) (A) (A) (A) (A)
                 (A) (A) (A) (A) (A) (A) (A) (A) (A) (A) (A) (A)
                 (A) (A) (A) (A) (A) (A) (A) (A) (A) (A) (A) (A)
                 (A) (A) (A) (A) (A) (A) (A) (A) (A) (A) (A) (A)
                 (A) (A) (A) (A) (A) (A) (A) (A) (A) (A) (A) (A)
                 (A) (A) (A) (A) (A) (A) (A) (A) (A) (A) (A) (A)
                 (A) (A) (A) (A) (A) (A) (A) (A) (A) (A) (A) (A)
                 (A) (A) (A) (A) (A) (A)
       Virtual   (A) (A) (A) (A) (A) (A) (A) (A) (A) (A) (A) (A)
                 (A) (A) (A) (A) (A) (A) (A) (A) (A) (A) (A) (A)
                 (A) (A) (A) (A) (A) (A) (A) (A) (A) (A) (A) (A)
                 (A) (A) (A) (A) (A) (A) (A) (A) (A) (A) (A) (A)
                 (A) (A) (A) (A) (A) (A) (A) (A) (A) (A) (A) (A)
                 (A) (A) (A) (A) (A) (A) (A) (A) (A) (A) (A) (A)
                 (A) (A) (A) (A) (A) (A) (A) (A) (A) (A) (A) (A)
                 (A) (A) (A) (A) (A) (A) (A) (A) (A) (A) (A) (A)
                 (A) (A) (A) (A) (A) (A) (A) (A) (A) (A) (A) (A)
                 (A) (A) (A) (A) (A) (A) (A) (A) (A) (A) (A) (A)
                 (A) (A) (A) (A) (A) (A) (A) (A) (A) (A) (A) (A)
                 (A) (A) (A) (A) (A) (A) (A) (A) (A) (A) (A) (A)
                 (A) (A) (A) (A) (A) (A) (A) (A) (A) (A) (A) (A)
                 (A) (A) (A) (A) (A) (A) (A) (A) (A) (A) (A) (A)
                 (A) (A) (A) (A) (A) (A) (A) (A) (A) (A) (A) (A)
                 (A) (A) (A) (A) (A) (A) (A) (A) (A) (A) (A) (A)
                 (A) (A) (A) (A) (A) (A) (A) (A) (A) (A) (A) (A)
                 (A) (A) (A) (A) (A) (A) (A) (A) (A) (A) (A) (A)
                 (A) (A) (A) (A) (A) (A) (A) (A) (A) (A) (A) (A)
                 (A) (A) (A) (A) (A) (A) (A) (A) (A) (A) (A) (A)
                 (A) (A) (A) (A) (A) (A) (A) (A) (A) (A) (A) (A)
                 (A) (A) (A) (A) (A) (A) (A) (A) (A) (A) (A) (A)
                 (A) (A) (A) (A) (A) (A) (A) (A) (A) (A) (A) (A)
                 (A) (A) (A) (A) (A) (A) (A) (A) (A) (A) (A) (A)
                 (A) (A) (A) (A) (A) (A) (A) (A) (A) (A) (A) (A)
                 (A) (A) (A) (A) (A) (A) (A) (A) (A) (A) (A) (A)
                 (A) (A) (A) (A) (A) (A) (A) (A) (A) (A) (A) (A)
                 (A) (A) (A) (A) (A) (A) (A) (A) (A) (A) (A) (A)
                 (A) (A) (A) (A) (A) (A) (A) (A) (A) (A) (A) (A)
                 (A) (A) (A) (A) (A) (A) (A) (A) (A) (A) (A) (A)
                 (A) (A) (A) (A) (A) (A) (A) (A) (A) (A) (A) (A)
                 (A) (A) (A) (A) (A) (A) (A) (A) (A) (A) (A) (A)
                 (A) (A) (A) (A) (A) (A) (A) (A) (A) (A) (A) (A)
                 (A) (A) (A) (A) (A) (A) (A) (A) (A) (A) (A) (A)
                 (A) (A) (A) (A) (A) (A) (A) (A) (A) (A) (A) (A)
                 (A) (A) (A) (A) (A) (A) (A) (A) (A) (A) (A) (A)
                 (A) (A) (A) (A) (A) (A) (A) (A) (A) (A) (A) (A)
                 (A) (A) (A) (A) (A) (A) (A) (A) (A) (A) (A) (A)
                 (A) (A) (A) (A) (A) (A) (A) (A) (A) (A) (A) (A)
                 (A) (A) (A) (A) (A) (A) (A) (A) (A) (A) (A) (A)
                 (A) (A) (A) (A) (A) (A) (A) (A) (A) (A) (A) (A)
                 (A) (A) (A) (A) (A) (A) (A) (A) (A) (A) (A) (A)
                 (A) (A) (A) (A) (A) (A) (A) (A) (A) (A) (A) (A)
                 (A) (A) (A) (A) (A) (A) (A) (A) (A) (A) (A) (A)
                 (A) (A) (A) (A) (A) (A) (A) (A) (A) (A) (A) (A)
                 (A) (A) (A) (A) (A) (A) (A) (A) (A) (A) (A) (A)
                 (A) (A) (A) (A) (A) (A) (A) (A) (A) (A) (A) (A)
                 (A) (A) (A) (A) (A) (A) (A) (A) (A) (A) (A) (A)
                 (A) (A) (A) (A) (A) (A) (A) (A) (A) (A) (A) (A)
                 (A) (A) (A) (A) (A) (A) (A) (A) (A) (A) (A) (A)
                 (A) (A) (A) (A) (A) (A) (A) (A) (A) (A) (A) (A)
                 (A) (A) (A) (A) (A) (A) (A) (A) (A) (A) (A) (A)
                 (A) (A) (A) (A) (A) (A) (A) (A) (A) (A) (A) (A)
                 (A) (A) (A) (A) (A) (A) (A) (A) (A) (A) (A) (A)
                 (A) (A) (A) (A) (A) (A) (A) (A) (A) (A) (A) (A)
                 (A) (A) (A) (A) (A) (A) (A) (A) (A) (A) (A) (A)
                 (A) (A) (A) (A) (A) (A) (A) (A) (A) (A) (A) (A)
                 (A) (A) (A) (A) (A) (A) (A) (A) (A) (A) (A) (A)
                 (A) (A) (A) (A) (A) (A) (A) (A) (A) (A) (A) (A)
[...]
              Bcc     0.1575   -11.395    -4.066    -3.801  0.7786  0.1769  0.6021
 
              Baa    -0.0124    -1.660    -0.592    -0.554  0.9193 -0.1588  0.3601
    32 C(13)  Bbb     0.0009     0.127     0.045     0.042 -0.3924 -0.4391  0.8082
              Bcc     0.0114     1.533     0.547     0.511 -0.0298  0.8843  0.4660
 
              Baa    -0.0256    -3.429    -1.224    -1.144 -0.2383 -0.6513  0.7205
    33 C(13)  Bbb    -0.0175    -2.352    -0.839    -0.785 -0.1688  0.7583  0.6296
              Bcc     0.0431     5.782     2.063     1.929  0.9564 -0.0284  0.2906
 
              Baa    -0.0799   -10.727    -3.828    -3.578 -0.0865 -0.3934  0.9153
    34 C(13)  Bbb     0.0346     4.638     1.655     1.547  0.2417  0.8830  0.4024
              Bcc     0.0454     6.089     2.173     2.031  0.9665 -0.2561 -0.0188
 
              Baa    -0.0814   -10.929    -3.900    -3.646 -0.3819  0.8522  0.3576
    35 C(13)  Bbb    -0.0791   -10.621    -3.790    -3.543  0.9081  0.2741  0.3165
              Bcc     0.1606    21.550     7.690     7.188 -0.1717 -0.4456  0.8786
 
              Baa    -0.0024    -0.316    -0.113    -0.105  0.7442  0.0533 -0.6659
    36 C(13)  Bbb    -0.0003    -0.040    -0.014    -0.013 -0.4620  0.7610 -0.4554
              Bcc     0.0027     0.356     0.127     0.119  0.4825  0.6465  0.5910
 
              Baa    -0.0489    -6.567    -2.343    -2.191 -0.1262 -0.3686  0.9210
    37 C(13)  Bbb     0.0240     3.219     1.149     1.074  0.9162  0.3128  0.2507
              Bcc     0.0250     3.349     1.195     1.117 -0.3804  0.8754  0.2982
 
              Baa    -0.0021    -0.223    -0.079    -0.074  0.0395 -0.5634  0.8253
    38 I(127) Bbb    -0.0000    -0.004    -0.002    -0.001 -0.2464  0.7949  0.5544
              Bcc     0.0021     0.227     0.081     0.076  0.9684  0.2252  0.1074
 
              Baa    -0.0828   -11.111    -3.965    -3.706  0.9954  0.0226  0.0933
    39 C(13)  Bbb    -0.0791   -10.620    -3.789    -3.542 -0.0583  0.9142  0.4011
              Bcc     0.1619    21.731     7.754     7.249 -0.0762 -0.4047  0.9113
 
              Baa    -0.0533    -7.152    -2.552    -2.386 -0.2862 -0.5549  0.7812
    40 C(13)  Bbb     0.0220     2.951     1.053     0.985  0.9130  0.0895  0.3981
              Bcc     0.0313     4.200     1.499     1.401 -0.2908  0.8271  0.4810
 
              Baa    -0.0563    -7.553    -2.695    -2.519  0.2605  0.6346  0.7276
    41 C(13)  Bbb    -0.0530    -7.106    -2.536    -2.370  0.8874 -0.4543  0.0785
              Bcc     0.1092    14.659     5.231     4.890 -0.3804 -0.6252  0.6814
 
              Baa    -0.0187    -2.509    -0.895    -0.837 -0.4059 -0.6117  0.6790
    42 C(13)  Bbb     0.0075     1.004     0.358     0.335  0.5238  0.4531  0.7213
              Bcc     0.0112     1.504     0.537     0.502  0.7489 -0.6484 -0.1365
 
              Baa    -0.0137    -1.836    -0.655    -0.612  0.7152  0.2507  0.6524
    43 C(13)  Bbb    -0.0122    -1.644    -0.586    -0.548 -0.5776  0.7376  0.3498
              Bcc     0.0259     3.479     1.242     1.161 -0.3935 -0.6270  0.6724
 
              Baa    -0.0106    -1.417    -0.506    -0.473 -0.3958 -0.6193  0.6781
    44 C(13)  Bbb     0.0045     0.608     0.217     0.203  0.5684  0.4148  0.7106
              Bcc     0.0060     0.809     0.289     0.270  0.7213 -0.6666 -0.1879
 
              Baa    -0.0149    -2.000    -0.714    -0.667  0.6703  0.3117  0.6734
    45 C(13)  Bbb    -0.0131    -1.756    -0.627    -0.586 -0.6269  0.7235  0.2891
              Bcc     0.0280     3.756     1.340     1.253 -0.3971 -0.6159  0.6804
 
              Baa    -0.0096    -1.290    -0.460    -0.430 -0.3962 -0.6226  0.6748
    46 C(13)  Bbb     0.0041     0.555     0.198     0.185  0.7726  0.1711  0.6115
              Bcc     0.0055     0.735     0.262     0.245 -0.4962  0.7636  0.4132
 
              Baa    -0.0132    -1.766    -0.630    -0.589  0.4901  0.4476  0.7479
    47 C(13)  Bbb    -0.0116    -1.562    -0.557    -0.521  0.7603 -0.6392 -0.1157
              Bcc     0.0248     3.329     1.188     1.110 -0.4262 -0.6254  0.6536
 
              Baa    -0.0120     0.870     0.310     0.290  0.0096  0.6850  0.7285
    48 O(17)  Bbb    -0.0076     0.551     0.197     0.184  0.9255 -0.2819  0.2529
              Bcc     0.0196    -1.421    -0.507    -0.474  0.3786  0.6718 -0.6367
 
              Baa    -0.0006    -0.083    -0.030    -0.028  0.3875  0.6849 -0.6170
    49 C(13)  Bbb    -0.0003    -0.034    -0.012    -0.011 -0.1330  0.7038  0.6978
              Bcc     0.0009     0.117     0.042     0.039  0.9122 -0.1884  0.3638
 
              Baa    -0.0003    -0.044    -0.016    -0.015 -0.4139 -0.6267  0.6602
    50 C(13)  Bbb    -0.0002    -0.027    -0.010    -0.009 -0.1624  0.7645  0.6239
              Bcc     0.0005     0.071     0.025     0.024  0.8957 -0.1510  0.4182
 
              Baa    -0.0003    -0.044    -0.016    -0.015  0.5341  0.7252 -0.4346
    51 C(13)  Bbb    -0.0002    -0.021    -0.008    -0.007 -0.2845  0.6383  0.7153
              Bcc     0.0005     0.065     0.023     0.022  0.7961 -0.2584  0.5472
 
              Baa    -0.0003    -0.035    -0.012    -0.012  0.4907  0.7040 -0.5134
    52 C(13)  Bbb    -0.0002    -0.021    -0.008    -0.007 -0.3107  0.6919  0.6518
              Bcc     0.0004     0.056     0.020     0.019  0.8140 -0.1603  0.5582
 
              Baa    -0.0002    -0.027    -0.010    -0.009  0.3493  0.6886 -0.6354
    53 C(13)  Bbb    -0.0001    -0.018    -0.006    -0.006 -0.3403  0.7251  0.5987
              Bcc     0.0003     0.044     0.016     0.015  0.8730  0.0072  0.4876
 
              Baa    -0.0002    -0.026    -0.009    -0.009 -0.3217 -0.4806  0.8158
    54 C(13)  Bbb    -0.0001    -0.019    -0.007    -0.006 -0.1951  0.8768  0.4396
              Bcc     0.0003     0.045     0.016     0.015  0.9265  0.0178  0.3758
 
              Baa    -0.0002    -0.009    -0.003    -0.003 -0.2271 -0.6722  0.7047
    55 N(14)  Bbb    -0.0002    -0.006    -0.002    -0.002 -0.2297  0.7402  0.6320
              Bcc     0.0004     0.015     0.005     0.005  0.9464  0.0183  0.3225
 
              Baa    -0.0344    -1.327    -0.474    -0.443  0.9738  0.2236  0.0418
    56 N(14)  Bbb    -0.0259    -0.999    -0.356    -0.333 -0.2113  0.8212  0.5300
              Bcc     0.0603     2.326     0.830     0.776  0.0842 -0.5250  0.8470
 
              Baa    -0.0028    -0.486    -0.173    -0.162 -0.1845 -0.4492  0.8742
    57 B(11)  Bbb     0.0008     0.142     0.051     0.047 -0.2348  0.8838  0.4046
              Bcc     0.0020     0.344     0.123     0.115  0.9544  0.1306  0.2686
 
              Baa    -0.0070    -3.516    -1.255    -1.173  0.8984  0.3702  0.2363
    58 F(19)  Bbb    -0.0067    -3.345    -1.194    -1.116  0.0286 -0.5861  0.8098
              Bcc     0.0137     6.862     2.448     2.289 -0.4383  0.7207  0.5371
 
              Baa    -0.0059    -2.965    -1.058    -0.989  0.5418  0.0401  0.8396
    59 F(19)  Bbb    -0.0034    -1.717    -0.613    -0.573  0.8378 -0.1064 -0.5355
              Bcc     0.0093     4.682     1.671     1.562  0.0678  0.9935 -0.0912
 
              Baa    -0.0027    -1.432    -0.511    -0.478  0.0756 -0.4002  0.9133
    60 H(1)   Bbb    -0.0004    -0.209    -0.074    -0.070  0.6101  0.7431  0.2751
              Bcc     0.0031     1.641     0.585     0.547  0.7887 -0.5364 -0.3003
 
              Baa    -0.0027    -1.448    -0.517    -0.483 -0.3977 -0.0839  0.9137
    61 H(1)   Bbb    -0.0005    -0.251    -0.090    -0.084  0.5871  0.7420  0.3237
              Bcc     0.0032     1.699     0.606     0.567  0.7051 -0.6652  0.2458
 
              Baa    -0.0020    -1.078    -0.385    -0.360 -0.2412  0.0422  0.9696
    62 H(1)   Bbb    -0.0013    -0.717    -0.256    -0.239  0.2993  0.9536  0.0330
              Bcc     0.0034     1.795     0.641     0.599  0.9232 -0.2982  0.2427
 
              Baa    -0.0019    -1.002    -0.358    -0.334  0.7950 -0.1306  0.5924
    63 H(1)   Bbb    -0.0014    -0.768    -0.274    -0.256 -0.5949 -0.3589  0.7192
              Bcc     0.0033     1.770     0.631     0.590 -0.1187  0.9242  0.3630
 
              Baa    -0.0030    -1.592    -0.568    -0.531 -0.4407 -0.4755  0.7614
    64 H(1)   Bbb    -0.0008    -0.442    -0.158    -0.147  0.8926 -0.1426  0.4276
              Bcc     0.0038     2.034     0.726     0.678 -0.0947  0.8681  0.4873
 
              Baa    -0.0007    -0.349    -0.125    -0.117  0.7076 -0.4126  0.5737
    65 H(1)   Bbb    -0.0002    -0.133    -0.047    -0.044 -0.6373 -0.0218  0.7703
              Bcc     0.0009     0.482     0.172     0.161  0.3053  0.9107  0.2784
 
              Baa    -0.0003    -0.158    -0.056    -0.053  0.8097 -0.5024  0.3033
    66 H(1)   Bbb    -0.0001    -0.029    -0.010    -0.010  0.0044  0.5221  0.8529
              Bcc     0.0004     0.187     0.067     0.062  0.5868  0.6892 -0.4249
 
              Baa    -0.0007    -0.358    -0.128    -0.119  0.4365  0.6141  0.6575
    67 H(1)   Bbb    -0.0002    -0.106    -0.038    -0.035  0.7221 -0.6751  0.1511
              Bcc     0.0009     0.464     0.165     0.155 -0.5366 -0.4089  0.7381
 
              Baa    -0.0004    -0.237    -0.085    -0.079  0.8607 -0.4371  0.2609
    68 H(1)   Bbb    -0.0003    -0.186    -0.066    -0.062  0.1441  0.7007  0.6987
              Bcc     0.0008     0.423     0.151     0.141 -0.4883 -0.5638  0.6661
 
              Baa    -0.0011    -0.611    -0.218    -0.204  0.8778 -0.4570 -0.1436
    69 H(1)   Bbb    -0.0004    -0.234    -0.083    -0.078  0.4663  0.7463  0.4750
              Bcc     0.0016     0.844     0.301     0.282 -0.1099 -0.4839  0.8682
 
              Baa    -0.0006    -0.344    -0.123    -0.115  0.9375 -0.2733  0.2154
    70 H(1)   Bbb    -0.0004    -0.193    -0.069    -0.064  0.1524  0.8790  0.4517
              Bcc     0.0010     0.537     0.192     0.179 -0.3128 -0.3906  0.8658
 
              Baa    -0.0007    -0.366    -0.131    -0.122 -0.2964  0.5685  0.7674
    71 H(1)   Bbb    -0.0003    -0.151    -0.054    -0.050  0.9289  0.3584  0.0933
              Bcc     0.0010     0.518     0.185     0.173 -0.2220  0.7405 -0.6343
 
              Baa    -0.0003    -0.157    -0.056    -0.053  0.1628  0.6995  0.6958
    72 H(1)   Bbb    -0.0002    -0.121    -0.043    -0.040  0.9501  0.0790 -0.3018
              Bcc     0.0005     0.278     0.099     0.093 -0.2661  0.7102 -0.6518
 
              Baa    -0.0002    -0.086    -0.031    -0.029  0.0100  0.7874  0.6164
    73 H(1)   Bbb    -0.0002    -0.081    -0.029    -0.027  0.9806  0.1130 -0.1602
              Bcc     0.0003     0.167     0.060     0.056  0.1958 -0.6060  0.7710
 
              Baa    -0.0002    -0.086    -0.031    -0.029  0.8748 -0.4180 -0.2449
    74 H(1)   Bbb    -0.0002    -0.081    -0.029    -0.027  0.4844  0.7583  0.4363
              Bcc     0.0003     0.167     0.060     0.056  0.0034 -0.5004  0.8658
 
              Baa    -0.0030    -1.583    -0.565    -0.528  0.6150  0.1240  0.7787
    75 H(1)   Bbb    -0.0000    -0.018    -0.006    -0.006 -0.4140  0.8913  0.1850
              Bcc     0.0030     1.600     0.571     0.534  0.6711  0.4361 -0.5995
 
              Baa    -0.0018    -0.974    -0.348    -0.325  0.6472  0.0829  0.7578
    76 H(1)   Bbb    -0.0003    -0.151    -0.054    -0.050  0.6829  0.3789 -0.6246
              Bcc     0.0021     1.125     0.401     0.375 -0.3389  0.9217  0.1886
 
              Baa    -0.0019    -0.993    -0.354    -0.331  0.6512  0.0050  0.7589
    77 H(1)   Bbb    -0.0003    -0.142    -0.051    -0.047  0.6910  0.4096 -0.5956
              Bcc     0.0021     1.135     0.405     0.379 -0.3138  0.9122  0.2633
 
              Baa    -0.0029    -1.543    -0.550    -0.515  0.6784 -0.0684  0.7315
    78 H(1)   Bbb     0.0002     0.107     0.038     0.036 -0.2172  0.9325  0.2887
              Bcc     0.0027     1.436     0.512     0.479  0.7018  0.3547 -0.6177
 
              Baa    -0.0027    -1.434    -0.512    -0.478 -0.2742 -0.5674  0.7764
    79 H(1)   Bbb    -0.0005    -0.278    -0.099    -0.093  0.9328 -0.3534  0.0712
              Bcc     0.0032     1.712     0.611     0.571  0.2340  0.7438  0.6262
 
              Baa    -0.0019    -0.992    -0.354    -0.331 -0.0611 -0.6122  0.7883
    80 H(1)   Bbb    -0.0013    -0.696    -0.248    -0.232  0.8267 -0.4736 -0.3038
              Bcc     0.0032     1.688     0.602     0.563  0.5594  0.6331  0.5350
 
              Baa    -0.0026    -1.372    -0.490    -0.458 -0.1552 -0.0728  0.9852
    81 H(1)   Bbb    -0.0002    -0.129    -0.046    -0.043  0.9523 -0.2763  0.1297
              Bcc     0.0028     1.501     0.536     0.501  0.2628  0.9583  0.1122
 
              Baa    -0.0028    -1.505    -0.537    -0.502  0.7977  0.6017 -0.0407
    82 H(1)   Bbb    -0.0019    -1.015    -0.362    -0.339  0.2130 -0.2179  0.9524
              Bcc     0.0047     2.520     0.899     0.841 -0.5642  0.7684  0.3020
 
              Baa    -0.0054    -2.881    -1.028    -0.961 -0.2943  0.8072  0.5117
    83 H(1)   Bbb    -0.0016    -0.843    -0.301    -0.281 -0.3483 -0.5891  0.7291
              Bcc     0.0070     3.724     1.329     1.242  0.8900  0.0364  0.4545
 
              Baa    -0.0010    -0.550    -0.196    -0.183  0.3140  0.7040 -0.6370
    84 H(1)   Bbb    -0.0004    -0.210    -0.075    -0.070 -0.2413  0.7081  0.6636
              Bcc     0.0014     0.760     0.271     0.254  0.9183 -0.0546  0.3922
 
              Baa    -0.0006    -0.303    -0.108    -0.101 -0.3803 -0.6385  0.6691
    85 H(1)   Bbb    -0.0003    -0.154    -0.055    -0.051  0.5263  0.4455  0.7243
              Bcc     0.0009     0.457     0.163     0.152  0.7606 -0.6275 -0.1666
 
              Baa    -0.0022    -1.162    -0.415    -0.388  0.6917  0.2796  0.6659
    86 H(1)   Bbb    -0.0002    -0.120    -0.043    -0.040 -0.3942 -0.6264  0.6725
              Bcc     0.0024     1.283     0.458     0.428 -0.6052  0.7276  0.3231
 
              Baa    -0.0006    -0.295    -0.105    -0.098 -0.3580 -0.6259  0.6929
    87 H(1)   Bbb    -0.0002    -0.091    -0.032    -0.030  0.8290  0.1283  0.5443
              Bcc     0.0007     0.385     0.138     0.129 -0.4296  0.7693  0.4729
 
              Baa    -0.0004    -0.202    -0.072    -0.068  0.5536  0.7059 -0.4419
    88 H(1)   Bbb    -0.0003    -0.139    -0.050    -0.046 -0.1297  0.5973  0.7915
              Bcc     0.0006     0.341     0.122     0.114  0.8226 -0.3808  0.4222
 
              Baa    -0.0004    -0.203    -0.073    -0.068 -0.2154 -0.4968  0.8407
    89 H(1)   Bbb    -0.0002    -0.133    -0.047    -0.044  0.0229  0.8581  0.5130
              Bcc     0.0006     0.336     0.120     0.112  0.9763 -0.1298  0.1734
 
              Baa    -0.0004    -0.188    -0.067    -0.063  0.6136  0.7531 -0.2374
    90 H(1)   Bbb    -0.0002    -0.093    -0.033    -0.031 -0.3438  0.5255  0.7782
              Bcc     0.0005     0.281     0.100     0.094  0.7109 -0.3959  0.5814
 
              Baa    -0.0002    -0.128    -0.046    -0.043  0.6026  0.6550 -0.4559
    91 H(1)   Bbb    -0.0002    -0.092    -0.033    -0.031 -0.3353  0.7262  0.6002
              Bcc     0.0004     0.220     0.079     0.073  0.7242 -0.2088  0.6572
 
              Baa    -0.0002    -0.092    -0.033    -0.031 -0.4299 -0.5682  0.7017
    92 H(1)   Bbb    -0.0001    -0.070    -0.025    -0.023 -0.3069  0.8228  0.4783
              Bcc     0.0003     0.162     0.058     0.054  0.8491  0.0098  0.5281
 
              Baa    -0.0002    -0.089    -0.032    -0.030 -0.2308 -0.4940  0.8382
    93 H(1)   Bbb    -0.0001    -0.063    -0.022    -0.021 -0.2078  0.8667  0.4536
              Bcc     0.0003     0.152     0.054     0.051  0.9505  0.0695  0.3027
 

 ---------------------------------------------------------------------------------

 No NMR shielding tensors so no spin-rotation constants.
 Leave Link  601 at Sun Oct 12 06:44:23 2025, MaxMem= 30870077440 cpu:             297.6 elap:               5.3
 (Enter /work/home/accqbws0vm/apprepo/gaussian/16-hy/scripts/../app/g16/l9999.exe)
 1\1\GINC-G03R2N33\SP\UM062X\def2TZVPP\C45H34B1F2I2N5O4(1-,2)\ACCQBWS0V
 M\12-Oct-2025\0\\#p M062X/DEF2TZVPP scrf=(solvent=water) em=GD3\\Energ
 y calculation for M100034926_reduced\\-1,2\C,0,-4.481819,2.300109,-1.0
 65314\C,0,-3.527009,1.146175,-1.02019\C,0,-3.8767,-0.204425,-1.218028\
 I,0,-5.820383,-0.906661,-1.546905\C,0,-2.712149,-0.988961,-1.265185\C,
 0,-2.522957,-2.395842,-1.608912\C,0,-3.084043,-3.510413,-1.090252\C,0,
 -3.932747,-3.761671,0.086025\C,0,-4.812185,-4.859658,0.020567\C,0,-5.6
 14033,-5.237946,1.094169\C,0,-5.522119,-4.52813,2.291785\C,0,-4.640022
 ,-3.452546,2.407534\C,0,-3.853245,-3.059645,1.317702\O,0,-2.973467,-2.
 012409,1.364907\C,0,-2.634415,-1.401996,2.620006\C,0,-1.648156,-2.2298
 12,3.416415\C,0,-0.507611,-2.750482,2.792436\C,0,0.395249,-3.486151,3.
 555227\C,0,0.134116,-3.669509,4.914419\C,0,-1.020773,-3.102835,5.44707
 7\N,0,-1.90734,-2.397272,4.723974\N,0,-1.645784,-0.146071,-1.08443\C,0
 ,-2.108075,1.151143,-0.883309\C,0,-1.174165,2.195444,-0.614096\C,0,-1.
 644561,3.548958,-0.300421\C,0,-1.210107,4.660158,-1.063007\C,0,-1.6521
 45,5.940461,-0.785963\C,0,-2.530361,6.146752,0.294045\N,0,-2.977066,7.
 461327,0.596026\O,0,-2.564452,8.424219,-0.099451\O,0,-3.774765,7.63297
 ,1.552669\C,0,-2.968911,5.06424,1.079529\C,0,-2.539209,3.787044,0.7711
 71\C,0,0.224459,1.913592,-0.627707\C,0,1.313334,2.684872,-0.118014\C,0
 ,1.295956,4.006866,0.587254\C,0,2.450881,1.894937,-0.317702\I,0,4.4107
 89,2.47473,0.14904\C,0,2.091848,0.664078,-0.912388\C,0,3.030399,-0.377
 932,-1.256419\C,0,2.861637,-1.410919,-2.124502\C,0,3.802429,-2.459002,
 -2.511038\C,0,3.387428,-3.329489,-3.542537\C,0,4.183709,-4.366342,-4.0
 19107\C,0,5.445904,-4.565743,-3.460082\C,0,5.89661,-3.735194,-2.431102
 \C,0,5.09197,-2.695638,-1.951859\O,0,5.487571,-1.866126,-0.936794\C,0,
 6.757011,-2.111364,-0.299861\C,0,6.896441,-1.13061,0.83674\C,0,6.13034
 2,-1.284287,1.997668\C,0,6.278182,-0.361704,3.030566\C,0,7.189344,0.68
 2397,2.867637\C,0,7.90895,0.753386,1.676176\N,0,7.775742,-0.127142,0.6
 70204\N,0,0.718786,0.683588,-1.078336\B,0,-0.180652,-0.546843,-1.34887
 3\F,0,-0.076441,-0.960037,-2.701367\F,0,0.189186,-1.62153,-0.519376\H,
 0,-4.854655,2.586702,-0.074902\H,0,-4.021076,3.186253,-1.50655\H,0,-5.
 351771,2.034186,-1.672575\H,0,-1.832016,-2.552571,-2.434937\H,0,-2.859
 449,-4.425219,-1.638118\H,0,-4.857108,-5.421476,-0.908685\H,0,-6.28835
 1,-6.083527,1.001849\H,0,-6.12559,-4.812687,3.148724\H,0,-4.56406,-2.9
 33105,3.35436\H,0,-2.175724,-0.451648,2.331874\H,0,-3.520936,-1.177433
 ,3.217544\H,0,-0.334087,-2.564505,1.737156\H,0,1.289024,-3.903238,3.10
 0932\H,0,0.808656,-4.234702,5.549093\H,0,-1.25188,-3.222857,6.503194\H
 ,0,-0.537603,4.49746,-1.898731\H,0,-1.3405,6.781007,-1.392848\H,0,-3.6
 26329,5.243055,1.920855\H,0,-2.866778,2.952836,1.382299\H,0,0.410172,4
 .116923,1.216368\H,0,2.177964,4.093243,1.22726\H,0,1.308917,4.857473,-
 0.103783\H,0,3.992838,-0.251906,-0.778649\H,0,1.915037,-1.482565,-2.64
 7259\H,0,2.40309,-3.169291,-3.974264\H,0,3.823183,-5.009035,-4.816194\
 H,0,6.088252,-5.365565,-3.816446\H,0,6.879233,-3.903896,-2.008808\H,0,
 6.782143,-3.140462,0.076061\H,0,7.572044,-1.969577,-1.015732\H,0,5.438
 342,-2.11616,2.083441\H,0,5.699765,-0.457711,3.944313\H,0,7.344611,1.4
 23783,3.644413\H,0,8.630145,1.552481,1.520995\\Version=ES64L-G16RevA.0
 3\State=2-A\HF=-3129.9082128\S2=0.77812\S2-1=0.\S2A=0.75068\RMSD=2.108
 e-09\Dipole=2.929682,-4.0232315,2.9344211\Quadrupole=1.7445608,-34.998
 52,33.2539592,16.168391,19.4482766,-9.7403826\PG=C01 [X(C45H34B1F2I2N5
 O4)]\\@


 The cat could very well be man's best friend
 but would never stoop to admitting it.
                               -- Doug Larson
 Job cpu time:       3 days  8 hours 28 minutes 16.3 seconds.
 Elapsed time:       0 days  1 hours 16 minutes 22.2 seconds.
 File lengths (MBytes):  RWF=   5891 Int=      0 D2E=      0 Chk=    381 Scr=      1
 Normal termination of Gaussian 16 at Sun Oct 12 06:44:23 2025.
