 Entering Gaussian System, Link 0=g16
 Input=M100033512_reduced_sp.gjf
 Output=M100033512_reduced_sp.log
 Initial command:
 /public/software/gauss/g16/l1.exe "/public/home/baiding/1101_v2_sp/tmp_M100033512_reduced_sp_1568608/Gau-4152265.inp" -scrdir="/public/home/baiding/1101_v2_sp/tmp_M100033512_reduced_sp_1568608/"
 Entering Link 1 = /public/software/gauss/g16/l1.exe PID=   4152266.
  
 Copyright (c) 1988,1990,1992,1993,1995,1998,2003,2009,2016,
            Gaussian, Inc.  All Rights Reserved.
  
 This is part of the Gaussian(R) 16 program.  It is based on
 the Gaussian(R) 09 system (copyright 2009, Gaussian, Inc.),
 the Gaussian(R) 03 system (copyright 2003, Gaussian, Inc.),
 the Gaussian(R) 98 system (copyright 1998, Gaussian, Inc.),
 the Gaussian(R) 94 system (copyright 1995, Gaussian, Inc.),
 the Gaussian 92(TM) system (copyright 1992, Gaussian, Inc.),
 the Gaussian 90(TM) system (copyright 1990, Gaussian, Inc.),
 the Gaussian 88(TM) system (copyright 1988, Gaussian, Inc.),
 the Gaussian 86(TM) system (copyright 1986, Carnegie Mellon
 University), and the Gaussian 82(TM) system (copyright 1983,
 Carnegie Mellon University). Gaussian is a federally registered
 trademark of Gaussian, Inc.
  
 This software contains proprietary and confidential information,
 including trade secrets, belonging to Gaussian, Inc.
  
 This software is provided under written license and may be
 used, copied, transmitted, or stored only in accord with that
 written license.
  
 The following legend is applicable only to US Government
 contracts under FAR:
  
                    RESTRICTED RIGHTS LEGEND
  
 Use, reproduction and disclosure by the US Government is
 subject to restrictions as set forth in subparagraphs (a)
 and (c) of the Commercial Computer Software - Restricted
 Rights clause in FAR 52.227-19.
  
 Gaussian, Inc.
 340 Quinnipiac St., Bldg. 40, Wallingford CT 06492
  
  
 ---------------------------------------------------------------
 Warning -- This program may not be used in any manner that
 competes with the business of Gaussian, Inc. or will provide
 assistance to any competitor of Gaussian, Inc.  The licensee
 of this program is prohibited from giving any competitor of
 Gaussian, Inc. access to this program.  By using this program,
 the user acknowledges that Gaussian, Inc. is engaged in the
 business of creating and licensing software in the field of
 computational chemistry and represents and warrants to the
 licensee that it is not a competitor of Gaussian, Inc. and that
 it will not use this program in any manner prohibited above.
 ---------------------------------------------------------------
  

 Cite this work as:
 Gaussian 16, Revision A.03,
 M. J. Frisch, G. W. Trucks, H. B. Schlegel, G. E. Scuseria, 
 M. A. Robb, J. R. Cheeseman, G. Scalmani, V. Barone, 
 G. A. Petersson, H. Nakatsuji, X. Li, M. Caricato, A. V. Marenich, 
 J. Bloino, B. G. Janesko, R. Gomperts, B. Mennucci, H. P. Hratchian, 
 J. V. Ortiz, A. F. Izmaylov, J. L. Sonnenberg, D. Williams-Young, 
 F. Ding, F. Lipparini, F. Egidi, J. Goings, B. Peng, A. Petrone, 
 T. Henderson, D. Ranasinghe, V. G. Zakrzewski, J. Gao, N. Rega, 
 G. Zheng, W. Liang, M. Hada, M. Ehara, K. Toyota, R. Fukuda, 
 J. Hasegawa, M. Ishida, T. Nakajima, Y. Honda, O. Kitao, H. Nakai, 
 T. Vreven, K. Throssell, J. A. Montgomery, Jr., J. E. Peralta, 
 F. Ogliaro, M. J. Bearpark, J. J. Heyd, E. N. Brothers, K. N. Kudin, 
 V. N. Staroverov, T. A. Keith, R. Kobayashi, J. Normand, 
 K. Raghavachari, A. P. Rendell, J. C. Burant, S. S. Iyengar, 
 J. Tomasi, M. Cossi, J. M. Millam, M. Klene, C. Adamo, R. Cammi, 
 J. W. Ochterski, R. L. Martin, K. Morokuma, O. Farkas, 
 J. B. Foresman, and D. J. Fox, Gaussian, Inc., Wallingford CT, 2016.
 
 ******************************************
 Gaussian 16:  ES64L-G16RevA.03 25-Dec-2016
                 6-Nov-2025 
 ******************************************
 %nprocshared=64
 Will use up to   64 processors via shared memory.
 %mem=230GB
 %chk=M100033512_reduced_sp.chk
 ----------------------------------------------
 #p M062X/DEF2TZVPP scrf=(solvent=water) em=GD3
 ----------------------------------------------
 1/38=1,172=1/1;
 2/12=2,17=6,18=5,40=1/2;
 3/5=44,7=202,11=2,25=1,30=1,70=2201,72=1,74=-55,124=31/1,2,3;
 4//1;
 5/5=2,38=5,53=1/2;
 6/7=2,8=2,9=2,10=2,28=1/1;
 99/5=1,9=1/99;
 Leave Link    1 at Thu Nov  6 13:07:38 2025, MaxMem= 30870077440 cpu:              21.5 elap:               0.3
 (Enter /public/software/gauss/g16/l101.exe)
 -----------------------------------------
 Energy calculation for M100033512_reduced
 -----------------------------------------
 Symbolic Z-matrix:
 Charge = -1 Multiplicity = 2
 C                     3.318    -3.11062   0.06572 
 C                     1.90925  -2.59009   0.06091 
 C                     0.77661  -3.39597   0.0201 
 C                    -0.37333  -2.57847   0.01028 
 C                    -1.75128  -2.95421  -0.04341 
 C                    -2.22579  -4.2325    0.01719 
 C                    -3.62995  -4.5991   -0.05836 
 C                    -4.00082  -5.95919   0.02665 
 C                    -5.34151  -6.31378  -0.04318 
 C                    -6.29935  -5.30803  -0.19657 
 C                    -5.84987  -3.98924  -0.27215 
 N                    -4.56515  -3.62333  -0.20838 
 N                     0.05179  -1.25725   0.04052 
 C                     1.44173  -1.2327    0.07894 
 C                     2.14335  -0.00072   0.11089 
 C                     1.42405   1.22107   0.07646 
 C                     1.87163   2.58499   0.059 
 C                     3.27248   3.12635   0.06615 
 C                     0.72741   3.37446   0.0161 
 C                    -0.40995   2.54005   0.00417 
 C                    -1.7943    2.8955   -0.05246 
 C                    -2.27959   4.16971   0.01699 
 C                    -3.67683   4.56348  -0.05608 
 N                    -3.91332   5.90116   0.0343 
 C                    -5.18249   6.32503  -0.02461 
 C                    -6.28479   5.48657  -0.17227 
 C                    -6.04607   4.1114   -0.26444 
 C                    -4.74113   3.64535  -0.20693 
 N                     0.03392   1.22522   0.03564 
 B                    -0.84731  -0.02238   0.22756 
 F                    -1.44003  -0.02359   1.51161 
 F                    -1.89628  -0.03092  -0.72536 
 C                     3.63642   0.01011   0.16953 
 C                     4.30991   0.01009   1.40087 
 C                     5.70134   0.02014   1.46262 
 C                     6.44872   0.03023   0.28027 
 C                     5.79865   0.03058  -0.95994 
 C                     4.40594   0.02055  -1.004 
 N                     7.86442   0.03961   0.43606 
 N                     8.57081   0.04713  -0.57793 
 N                     9.33764   0.05461  -1.42296 
 H                     3.89128  -2.776    -0.80534 
 H                     3.87853  -2.79427   0.95163 
 H                     3.30405  -4.20466   0.05405 
 H                     0.77491  -4.47781  -0.01995 
 H                    -2.47231  -2.15188  -0.15162 
 H                    -1.53243  -5.06279   0.13095 
 H                    -3.23102  -6.7155    0.14611 
 H                    -5.63724  -7.35693   0.02093 
 H                    -7.35879  -5.53259  -0.25632 
 H                    -6.5695   -3.1809   -0.3919 
 H                     3.84998   2.806    -0.80751 
 H                     3.24222   4.2201    0.06147 
 H                     3.83831   2.81263   0.94958 
 H                     0.70999   4.45606  -0.02493 
 H                    -2.488     2.07026  -0.17315 
 H                    -1.59015   5.00158   0.13989 
 H                    -5.32762   7.40129   0.05111 
 H                    -7.2886    5.89536  -0.21301 
 H                    -6.86996   3.41305  -0.37975 
 H                    -4.54101   2.58184  -0.27623 
 H                     3.73734   0.00227   2.32326 
 H                     6.21535   0.02009   2.4181 
 H                     6.36872   0.03832  -1.88405 
 H                     3.90795   0.02076  -1.96881 
 
 ITRead=  0  0  0  0  0  0  0  0  0  0  0  0  0  0  0  0  0  0  0  0
 ITRead=  0  0  0  0  0  0  0  0  0  0  0  0  0  0  0  0  0  0  0  0
 ITRead=  0  0  0  0  0  0  0  0  0  0  0  0  0  0  0  0  0  0  0  0
 ITRead=  0  0  0  0  0
 MicOpt= -1 -1 -1 -1 -1 -1 -1 -1 -1 -1 -1 -1 -1 -1 -1 -1 -1 -1 -1 -1
 MicOpt= -1 -1 -1 -1 -1 -1 -1 -1 -1 -1 -1 -1 -1 -1 -1 -1 -1 -1 -1 -1
 MicOpt= -1 -1 -1 -1 -1 -1 -1 -1 -1 -1 -1 -1 -1 -1 -1 -1 -1 -1 -1 -1
 MicOpt= -1 -1 -1 -1 -1
 NAtoms=     65 NQM=       65 NQMF=       0 NMMI=      0 NMMIF=      0
                NMic=       0 NMicF=      0.
                    Isotopes and Nuclear Properties:
 (Nuclear quadrupole moments (NQMom) in fm**2, nuclear magnetic moments (NMagM)
  in nuclear magnetons)

  Atom         1           2           3           4           5           6           7           8           9          10
 IAtWgt=          12          12          12          12          12          12          12          12          12          12
 AtmWgt=  12.0000000  12.0000000  12.0000000  12.0000000  12.0000000  12.0000000  12.0000000  12.0000000  12.0000000  12.0000000
 NucSpn=           0           0           0           0           0           0           0           0           0           0
 AtZEff=  -0.0000000  -0.0000000  -0.0000000  -0.0000000  -0.0000000  -0.0000000  -0.0000000  -0.0000000  -0.0000000  -0.0000000
 NQMom=    0.0000000   0.0000000   0.0000000   0.0000000   0.0000000   0.0000000   0.0000000   0.0000000   0.0000000   0.0000000
 NMagM=    0.0000000   0.0000000   0.0000000   0.0000000   0.0000000   0.0000000   0.0000000   0.0000000   0.0000000   0.0000000
 AtZNuc=   6.0000000   6.0000000   6.0000000   6.0000000   6.0000000   6.0000000   6.0000000   6.0000000   6.0000000   6.0000000

  Atom        11          12          13          14          15          16          17          18          19          20
 IAtWgt=          12          14          14          12          12          12          12          12          12          12
 AtmWgt=  12.0000000  14.0030740  14.0030740  12.0000000  12.0000000  12.0000000  12.0000000  12.0000000  12.0000000  12.0000000
 NucSpn=           0           2           2           0           0           0           0           0           0           0
 AtZEff=  -0.0000000  -0.0000000  -0.0000000  -0.0000000  -0.0000000  -0.0000000  -0.0000000  -0.0000000  -0.0000000  -0.0000000
 NQMom=    0.0000000   2.0440000   2.0440000   0.0000000   0.0000000   0.0000000   0.0000000   0.0000000   0.0000000   0.0000000
 NMagM=    0.0000000   0.4037610   0.4037610   0.0000000   0.0000000   0.0000000   0.0000000   0.0000000   0.0000000   0.0000000
 AtZNuc=   6.0000000   7.0000000   7.0000000   6.0000000   6.0000000   6.0000000   6.0000000   6.0000000   6.0000000   6.0000000

  Atom        21          22          23          24          25          26          27          28          29          30
 IAtWgt=          12          12          12          14          12          12          12          12          14          11
 AtmWgt=  12.0000000  12.0000000  12.0000000  14.0030740  12.0000000  12.0000000  12.0000000  12.0000000  14.0030740  11.0093053
 NucSpn=           0           0           0           2           0           0           0           0           2           3
 AtZEff=  -0.0000000  -0.0000000  -0.0000000  -0.0000000  -0.0000000  -0.0000000  -0.0000000  -0.0000000  -0.0000000  -0.0000000
 NQMom=    0.0000000   0.0000000   0.0000000   2.0440000   0.0000000   0.0000000   0.0000000   0.0000000   2.0440000   4.0590000
 NMagM=    0.0000000   0.0000000   0.0000000   0.4037610   0.0000000   0.0000000   0.0000000   0.0000000   0.4037610   2.6886370
 AtZNuc=   6.0000000   6.0000000   6.0000000   7.0000000   6.0000000   6.0000000   6.0000000   6.0000000   7.0000000   5.0000000

  Atom        31          32          33          34          35          36          37          38          39          40
 IAtWgt=          19          19          12          12          12          12          12          12          14          14
 AtmWgt=  18.9984033  18.9984033  12.0000000  12.0000000  12.0000000  12.0000000  12.0000000  12.0000000  14.0030740  14.0030740
 NucSpn=           1           1           0           0           0           0           0           0           2           2
 AtZEff=  -0.0000000  -0.0000000  -0.0000000  -0.0000000  -0.0000000  -0.0000000  -0.0000000  -0.0000000  -0.0000000  -0.0000000
 NQMom=    0.0000000   0.0000000   0.0000000   0.0000000   0.0000000   0.0000000   0.0000000   0.0000000   2.0440000   2.0440000
 NMagM=    2.6288670   2.6288670   0.0000000   0.0000000   0.0000000   0.0000000   0.0000000   0.0000000   0.4037610   0.4037610
 AtZNuc=   9.0000000   9.0000000   6.0000000   6.0000000   6.0000000   6.0000000   6.0000000   6.0000000   7.0000000   7.0000000

  Atom        41          42          43          44          45          46          47          48          49          50
 IAtWgt=          14           1           1           1           1           1           1           1           1           1
 AtmWgt=  14.0030740   1.0078250   1.0078250   1.0078250   1.0078250   1.0078250   1.0078250   1.0078250   1.0078250   1.0078250
 NucSpn=           2           1           1           1           1           1           1           1           1           1
 AtZEff=  -0.0000000  -0.0000000  -0.0000000  -0.0000000  -0.0000000  -0.0000000  -0.0000000  -0.0000000  -0.0000000  -0.0000000
 NQMom=    2.0440000   0.0000000   0.0000000   0.0000000   0.0000000   0.0000000   0.0000000   0.0000000   0.0000000   0.0000000
 NMagM=    0.4037610   2.7928460   2.7928460   2.7928460   2.7928460   2.7928460   2.7928460   2.7928460   2.7928460   2.7928460
 AtZNuc=   7.0000000   1.0000000   1.0000000   1.0000000   1.0000000   1.0000000   1.0000000   1.0000000   1.0000000   1.0000000

  Atom        51          52          53          54          55          56          57          58          59          60
 IAtWgt=           1           1           1           1           1           1           1           1           1           1
 AtmWgt=   1.0078250   1.0078250   1.0078250   1.0078250   1.0078250   1.0078250   1.0078250   1.0078250   1.0078250   1.0078250
 NucSpn=           1           1           1           1           1           1           1           1           1           1
 AtZEff=  -0.0000000  -0.0000000  -0.0000000  -0.0000000  -0.0000000  -0.0000000  -0.0000000  -0.0000000  -0.0000000  -0.0000000
 NQMom=    0.0000000   0.0000000   0.0000000   0.0000000   0.0000000   0.0000000   0.0000000   0.0000000   0.0000000   0.0000000
 NMagM=    2.7928460   2.7928460   2.7928460   2.7928460   2.7928460   2.7928460   2.7928460   2.7928460   2.7928460   2.7928460
 AtZNuc=   1.0000000   1.0000000   1.0000000   1.0000000   1.0000000   1.0000000   1.0000000   1.0000000   1.0000000   1.0000000

  Atom        61          62          63          64          65
 IAtWgt=           1           1           1           1           1
 AtmWgt=   1.0078250   1.0078250   1.0078250   1.0078250   1.0078250
 NucSpn=           1           1           1           1           1
 AtZEff=  -0.0000000  -0.0000000  -0.0000000  -0.0000000  -0.0000000
 NQMom=    0.0000000   0.0000000   0.0000000   0.0000000   0.0000000
 NMagM=    2.7928460   2.7928460   2.7928460   2.7928460   2.7928460
 AtZNuc=   1.0000000   1.0000000   1.0000000   1.0000000   1.0000000
 Leave Link  101 at Thu Nov  6 13:07:38 2025, MaxMem= 30870077440 cpu:               3.8 elap:               0.1
 (Enter /public/software/gauss/g16/l202.exe)
 Stoichiometry    C31H24BF2N7(1-,2)
 Framework group  C1[X(C31H24BF2N7)]
 Deg. of freedom   189
 Full point group                 C1      NOp   1
 Largest Abelian subgroup         C1      NOp   1
 Largest concise Abelian subgroup C1      NOp   1
                         Standard orientation:                         
 ---------------------------------------------------------------------
 Center     Atomic      Atomic             Coordinates (Angstroms)
 Number     Number       Type             X           Y           Z
 ---------------------------------------------------------------------
      1          6           0       -3.318002    3.110624    0.065722
      2          6           0       -1.909251    2.590093    0.060914
      3          6           0       -0.776607    3.395972    0.020102
      4          6           0        0.373334    2.578465    0.010278
      5          6           0        1.751284    2.954211   -0.043408
      6          6           0        2.225788    4.232500    0.017186
      7          6           0        3.629945    4.599102   -0.058358
      8          6           0        4.000822    5.959194    0.026650
      9          6           0        5.341506    6.313781   -0.043177
     10          6           0        6.299349    5.308029   -0.196574
     11          6           0        5.849873    3.989241   -0.272151
     12          7           0        4.565146    3.623328   -0.208383
     13          7           0       -0.051785    1.257253    0.040524
     14          6           0       -1.441727    1.232698    0.078940
     15          6           0       -2.143345    0.000722    0.110890
     16          6           0       -1.424051   -1.221067    0.076456
     17          6           0       -1.871625   -2.584991    0.059000
     18          6           0       -3.272480   -3.126349    0.066153
     19          6           0       -0.727406   -3.374464    0.016098
     20          6           0        0.409954   -2.540045    0.004167
     21          6           0        1.794298   -2.895501   -0.052456
     22          6           0        2.279589   -4.169710    0.016988
     23          6           0        3.676833   -4.563475   -0.056084
     24          7           0        3.913324   -5.901163    0.034299
     25          6           0        5.182493   -6.325030   -0.024605
     26          6           0        6.284790   -5.486573   -0.172266
     27          6           0        6.046068   -4.111404   -0.264436
     28          6           0        4.741127   -3.645353   -0.206928
     29          7           0       -0.033916   -1.225221    0.035637
     30          5           0        0.847305    0.022376    0.227556
     31          9           0        1.440029    0.023587    1.511612
     32          9           0        1.896275    0.030923   -0.725360
     33          6           0       -3.636422   -0.010112    0.169533
     34          6           0       -4.309905   -0.010087    1.400868
     35          6           0       -5.701341   -0.020143    1.462618
     36          6           0       -6.448722   -0.030227    0.280266
     37          6           0       -5.798647   -0.030576   -0.959940
     38          6           0       -4.405944   -0.020548   -1.003998
     39          7           0       -7.864422   -0.039612    0.436062
     40          7           0       -8.570810   -0.047125   -0.577932
     41          7           0       -9.337644   -0.054608   -1.422959
     42          1           0       -3.891275    2.775999   -0.805336
     43          1           0       -3.878528    2.794267    0.951629
     44          1           0       -3.304045    4.204658    0.054053
     45          1           0       -0.774910    4.477811   -0.019953
     46          1           0        2.472305    2.151877   -0.151615
     47          1           0        1.532431    5.062791    0.130952
     48          1           0        3.231018    6.715502    0.146107
     49          1           0        5.637242    7.356927    0.020931
     50          1           0        7.358791    5.532585   -0.256322
     51          1           0        6.569504    3.180901   -0.391897
     52          1           0       -3.849981   -2.806000   -0.807508
     53          1           0       -3.242215   -4.220100    0.061472
     54          1           0       -3.838307   -2.812626    0.949583
     55          1           0       -0.709992   -4.456063   -0.024925
     56          1           0        2.488000   -2.070263   -0.173146
     57          1           0        1.590147   -5.001578    0.139885
     58          1           0        5.327623   -7.401285    0.051111
     59          1           0        7.288599   -5.895359   -0.213013
     60          1           0        6.869955   -3.413050   -0.379748
     61          1           0        4.541013   -2.581844   -0.276228
     62          1           0       -3.737340   -0.002269    2.323261
     63          1           0       -6.215349   -0.020091    2.418101
     64          1           0       -6.368716   -0.038319   -1.884054
     65          1           0       -3.907945   -0.020758   -1.968813
 ---------------------------------------------------------------------
 Rotational constants (GHZ):           0.0848715           0.0493186           0.0319429
 Leave Link  202 at Thu Nov  6 13:07:38 2025, MaxMem= 30870077440 cpu:               0.2 elap:               0.0
 (Enter /public/software/gauss/g16/l301.exe)
 Standard basis: def2TZVPP (5D, 7F)
 Ernie: Thresh=  0.10000D-02 Tol=  0.10000D-05 Strict=F.
 There are  1836 symmetry adapted cartesian basis functions of A   symmetry.
 There are  1607 symmetry adapted basis functions of A   symmetry.
  1607 basis functions,  2499 primitive gaussians,  1836 cartesian basis functions
   142 alpha electrons      141 beta electrons
       nuclear repulsion energy      4197.6132948154 Hartrees.
 IExCor= 4336 DFT=T Ex+Corr=M062X ExCW=0 ScaHFX=  0.540000
 ScaDFX=  1.000000  1.000000  1.000000  1.000000 ScalE2=  1.000000  1.000000
 IRadAn=      5 IRanWt=     -1 IRanGd=            0 ICorTp=0 IEmpDi=131
 NAtoms=   65 NActive=   65 NUniq=   65 SFac= 1.00D+00 NAtFMM=   60 NAOKFM=T Big=T
 Integral buffers will be    131072 words long.
 Raffenetti 2 integral format.
 Two-electron integral symmetry is turned on.
 R6Disp:  Grimme-D3 Dispersion energy=       -0.0051584756 Hartrees.
 Nuclear repulsion after empirical dispersion term =     4197.6081363398 Hartrees.
 ------------------------------------------------------------------------------
 Polarizable Continuum Model (PCM)
 =================================
 Model                : PCM.
 Atomic radii         : UFF (Universal Force Field).
 Polarization charges : Total charges.
 Charge compensation  : None.
 Solution method      : On-the-fly selection.
 Cavity type          : Scaled VdW (van der Waals Surface) (Alpha=1.100).
 Cavity algorithm     : GePol (No added spheres)
                        Default sphere list used, NSphG=   65.
                        Lebedev-Laikov grids with approx.  5.0 points / Ang**2.
                        Smoothing algorithm: York/Karplus (Gamma=1.0000).
                        Polarization charges: spherical gaussians, with
                                              point-specific exponents (IZeta= 3).
                        Self-potential: point-specific (ISelfS= 7).
                        Self-field    : sphere-specific E.n sum rule (ISelfD= 2).
 Solvent              : Water, Eps=  78.355300 Eps(inf)=   1.777849
 ------------------------------------------------------------------------------
 GePol: Number of generator spheres                  =      65
 GePol: Total number of spheres                      =      65
 GePol: Number of exposed spheres                    =      65 (100.00%)
 GePol: Number of points                             =    4959
 GePol: Average weight of points                     =       0.13
 GePol: Minimum weight of points                     =   0.51D-11
 GePol: Maximum weight of points                     =    0.20577
 GePol: Number of points with low weight             =     295
 GePol: Fraction of low-weight points (<1% of avg)   =       5.95%
 GePol: Cavity surface area                          =    629.846 Ang**2
 GePol: Cavity volume                                =    719.455 Ang**3
 Leave Link  301 at Thu Nov  6 13:07:38 2025, MaxMem= 30870077440 cpu:               3.4 elap:               0.1
 (Enter /public/software/gauss/g16/l302.exe)
 NPDir=0 NMtPBC=     1 NCelOv=     1 NCel=       1 NClECP=     1 NCelD=      1
         NCelK=      1 NCelE2=     1 NClLst=     1 CellRange=     0.0.
 One-electron integrals computed using PRISM.
 One-electron integral symmetry used in STVInt
   1 Symmetry operations used in ECPInt.
 ECPInt:  NShTT=  177310 NPrTT=  513552 LenC2=  117845 LenP2D=  230749.
 LDataN:  DoStor=T MaxTD1= 6 Len=  172
 NBasis=  1607 RedAO= T EigKep=  3.79D-06  NBF=  1607
 NBsUse=  1607 1.00D-06 EigRej= -1.00D+00 NBFU=  1607
 Precomputing XC quadrature grid using
 IXCGrd= 4 IRadAn=           5 IRanWt=          -1 IRanGd=           0 AccXCQ= 0.00D+00.
 Generated NRdTot=       0 NPtTot=           0 NUsed=           0 NTot=          32
 NSgBfM=  1649  1648  1648  1648  1649 MxSgAt=    65 MxSgA2=    65.
 Leave Link  302 at Thu Nov  6 13:07:45 2025, MaxMem= 30870077440 cpu:             417.0 elap:               6.6
 (Enter /public/software/gauss/g16/l303.exe)
 DipDrv:  MaxL=1.
 Leave Link  303 at Thu Nov  6 13:07:45 2025, MaxMem= 30870077440 cpu:              21.9 elap:               0.4
 (Enter /public/software/gauss/g16/l401.exe)
 ExpMin= 6.06D-02 ExpMax= 3.55D+04 ExpMxC= 1.21D+03 IAcc=3 IRadAn=         5 AccDes= 0.00D+00
 Harris functional with IExCor= 1009 and IRadAn=       5 diagonalized for initial guess.
 HarFok:  IExCor= 1009 AccDes= 0.00D+00 IRadAn=         5 IDoV= 1 UseB2=F ITyADJ=14
 ICtDFT=  3500011 ScaDFX=  1.000000  1.000000  1.000000  1.000000
 FoFCou: FMM=F IPFlag=           0 FMFlag=      100000 FMFlg1=        2001
         NFxFlg=           0 DoJE=T BraDBF=F KetDBF=T FulRan=T
         wScrn=  0.000000 ICntrl=       500 IOpCl=  0 I1Cent=   200000004 NGrid=           0
         NMat0=    1 NMatS0=      1 NMatT0=    0 NMatD0=    1 NMtDS0=    0 NMtDT0=    0
 Petite list used in FoFCou.
 Harris En= -1802.88522060653    
 JPrj=0 DoOrth=F DoCkMO=F.
 Initial guess <Sx>= 0.0000 <Sy>= 0.0000 <Sz>= 0.5000 <S**2>= 0.7500 S= 0.5000
 Leave Link  401 at Thu Nov  6 13:07:54 2025, MaxMem= 30870077440 cpu:             537.6 elap:               8.5
 (Enter /public/software/gauss/g16/l502.exe)
 Integral symmetry usage will be decided dynamically.
 UHF open shell SCF:
 Using DIIS extrapolation, IDIIS=  1040.
 NGot= 30870077440 LenX= 30863202739 LenY= 30859830007
 Requested convergence on RMS density matrix=1.00D-08 within 128 cycles.
 Requested convergence on MAX density matrix=1.00D-06.
 Requested convergence on             energy=1.00D-06.
 No special actions if energy rises.
 Fock matrices will be formed incrementally for  20 cycles.

 Cycle   1  Pass 1  IDiag  1:
 FoFJK:  IHMeth= 1 ICntrl=       0 DoSepK=F KAlg= 0 I1Cent=           0 FoldK=F
 IRaf= 630000000 NMat=       1 IRICut=       1 DoRegI=T DoRafI=F ISym2E= 0 IDoP0=0 IntGTp=1.
 FoFCou: FMM=T IPFlag=           0 FMFlag=      100000 FMFlg1=        2001
         NFxFlg=           0 DoJE=F BraDBF=F KetDBF=F FulRan=T
         wScrn=  0.000000 ICntrl=         0 IOpCl=  1 I1Cent=           0 NGrid=           0
         NMat0=    1 NMatS0=      1 NMatT0=    0 NMatD0=    1 NMtDS0=    0 NMtDT0=    0
 Symmetry not used in FoFCou.
 FMM levels:  10  Number of levels for PrismC:   9
 Inv3:  Mode=1 IEnd=    73775043.
 Iteration    1 A*A^-1 deviation from unit magnitude is 1.08D-14 for   4925.
 Iteration    1 A*A^-1 deviation from orthogonality  is 8.50D-15 for   4931   1831.
 Iteration    1 A^-1*A deviation from unit magnitude is 1.08D-14 for   4925.
 Iteration    1 A^-1*A deviation from orthogonality  is 3.25D-15 for   4957   4943.
 E= -1802.87287074937    
 DIIS: error= 1.92D-02 at cycle   1 NSaved=   1.
 NSaved= 1 IEnMin= 1 EnMin= -1802.87287074937     IErMin= 1 ErrMin= 1.92D-02
 ErrMax= 1.92D-02  0.00D+00 EMaxC= 1.00D-01 BMatC= 4.56D+00 BMatP= 4.56D+00
 IDIUse=3 WtCom= 8.08D-01 WtEn= 1.92D-01
 Coeff-Com:  0.100D+01
 Coeff-En:   0.100D+01
 Coeff:      0.100D+01
 Gap=     0.126 Goal=   None    Shift=    0.000
 Gap=     0.268 Goal=   None    Shift=    0.000
 GapD=    0.126 DampG=1.000 DampE=0.500 DampFc=0.5000 IDamp=-1.
 Damping current iteration by 5.00D-01
 RMSDP=1.64D-03 MaxDP=2.63D-01              OVMax= 2.23D-01

 Cycle   2  Pass 1  IDiag  1:
 RMSU=  8.19D-04    CP:  9.85D-01
 E= -1803.34596238701     Delta-E=       -0.473091637641 Rises=F Damp=T
 DIIS: error= 6.88D-03 at cycle   2 NSaved=   2.
 NSaved= 2 IEnMin= 2 EnMin= -1803.34596238701     IErMin= 2 ErrMin= 6.88D-03
 ErrMax= 6.88D-03  0.00D+00 EMaxC= 1.00D-01 BMatC= 4.50D-01 BMatP= 4.56D+00
 IDIUse=3 WtCom= 9.31D-01 WtEn= 6.88D-02
 Coeff-Com: -0.170D+00 0.117D+01
 Coeff-En:   0.000D+00 0.100D+01
 Coeff:     -0.158D+00 0.116D+01
 Gap=     0.173 Goal=   None    Shift=    0.000
 Gap=     0.223 Goal=   None    Shift=    0.000
 RMSDP=6.68D-04 MaxDP=5.77D-02 DE=-4.73D-01 OVMax= 1.21D-01

 Cycle   3  Pass 1  IDiag  1:
 RMSU=  6.37D-04    CP:  9.67D-01  1.23D+00
 E= -1803.75448314609     Delta-E=       -0.408520759087 Rises=F Damp=F
 DIIS: error= 5.18D-03 at cycle   3 NSaved=   3.
 NSaved= 3 IEnMin= 3 EnMin= -1803.75448314609     IErMin= 3 ErrMin= 5.18D-03
 ErrMax= 5.18D-03  0.00D+00 EMaxC= 1.00D-01 BMatC= 1.89D-01 BMatP= 4.50D-01
 IDIUse=3 WtCom= 9.48D-01 WtEn= 5.18D-02
 Coeff-Com: -0.137D+00 0.502D+00 0.635D+00
 Coeff-En:   0.000D+00 0.000D+00 0.100D+01
 Coeff:     -0.130D+00 0.476D+00 0.654D+00
 Gap=     0.127 Goal=   None    Shift=    0.000
 Gap=     0.141 Goal=   None    Shift=    0.000
 RMSDP=1.96D-04 MaxDP=3.24D-02 DE=-4.09D-01 OVMax= 4.63D-02

 Cycle   4  Pass 1  IDiag  1:
 RMSU=  1.91D-04    CP:  9.66D-01  1.22D+00  9.26D-01
 E= -1803.78275529965     Delta-E=       -0.028272153552 Rises=F Damp=F
 DIIS: error= 3.72D-03 at cycle   4 NSaved=   4.
 NSaved= 4 IEnMin= 4 EnMin= -1803.78275529965     IErMin= 4 ErrMin= 3.72D-03
 ErrMax= 3.72D-03  0.00D+00 EMaxC= 1.00D-01 BMatC= 5.24D-02 BMatP= 1.89D-01
 IDIUse=3 WtCom= 9.63D-01 WtEn= 3.72D-02
 Coeff-Com: -0.531D-01 0.141D+00 0.382D+00 0.531D+00
 Coeff-En:   0.000D+00 0.000D+00 0.208D+00 0.792D+00
 Coeff:     -0.511D-01 0.136D+00 0.375D+00 0.540D+00
 Gap=     0.128 Goal=   None    Shift=    0.000
 Gap=     0.143 Goal=   None    Shift=    0.000
 RMSDP=7.76D-05 MaxDP=1.38D-02 DE=-2.83D-02 OVMax= 2.58D-02

 Cycle   5  Pass 1  IDiag  1:
 RMSU=  6.04D-05    CP:  9.66D-01  1.24D+00  9.37D-01  7.68D-01
 E= -1803.79258403195     Delta-E=       -0.009828732304 Rises=F Damp=F
 DIIS: error= 1.30D-03 at cycle   5 NSaved=   5.
 NSaved= 5 IEnMin= 5 EnMin= -1803.79258403195     IErMin= 5 ErrMin= 1.30D-03
 ErrMax= 1.30D-03  0.00D+00 EMaxC= 1.00D-01 BMatC= 5.12D-03 BMatP= 5.24D-02
 IDIUse=3 WtCom= 9.87D-01 WtEn= 1.30D-02
 Coeff-Com: -0.193D-01 0.409D-01 0.168D+00 0.317D+00 0.493D+00
 Coeff-En:   0.000D+00 0.000D+00 0.000D+00 0.000D+00 0.100D+01
 Coeff:     -0.191D-01 0.404D-01 0.166D+00 0.313D+00 0.500D+00
 Gap=     0.129 Goal=   None    Shift=    0.000
 Gap=     0.145 Goal=   None    Shift=    0.000
 RMSDP=2.57D-05 MaxDP=5.31D-03 DE=-9.83D-03 OVMax= 1.09D-02

 Cycle   6  Pass 1  IDiag  1:
 RMSU=  2.37D-05    CP:  9.66D-01  1.25D+00  9.36D-01  7.75D-01  8.45D-01
 E= -1803.79372434610     Delta-E=       -0.001140314153 Rises=F Damp=F
 DIIS: error= 3.02D-04 at cycle   6 NSaved=   6.
 NSaved= 6 IEnMin= 6 EnMin= -1803.79372434610     IErMin= 6 ErrMin= 3.02D-04
 ErrMax= 3.02D-04  0.00D+00 EMaxC= 1.00D-01 BMatC= 4.21D-04 BMatP= 5.12D-03
 IDIUse=3 WtCom= 9.97D-01 WtEn= 3.02D-03
 Coeff-Com: -0.224D-02 0.153D-02 0.300D-01 0.790D-01 0.242D+00 0.650D+00
 Coeff-En:   0.000D+00 0.000D+00 0.000D+00 0.000D+00 0.000D+00 0.100D+01
 Coeff:     -0.223D-02 0.152D-02 0.299D-01 0.788D-01 0.241D+00 0.651D+00
 Gap=     0.131 Goal=   None    Shift=    0.000
 Gap=     0.146 Goal=   None    Shift=    0.000
 RMSDP=1.51D-05 MaxDP=2.25D-03 DE=-1.14D-03 OVMax= 7.19D-03

 Cycle   7  Pass 1  IDiag  1:
 RMSU=  1.12D-05    CP:  9.66D-01  1.25D+00  9.39D-01  7.71D-01  1.00D+00
                    CP:  1.10D+00
 E= -1803.79390408352     Delta-E=       -0.000179737417 Rises=F Damp=F
 DIIS: error= 1.22D-04 at cycle   7 NSaved=   7.
 NSaved= 7 IEnMin= 7 EnMin= -1803.79390408352     IErMin= 7 ErrMin= 1.22D-04
 ErrMax= 1.22D-04  0.00D+00 EMaxC= 1.00D-01 BMatC= 7.57D-05 BMatP= 4.21D-04
 IDIUse=3 WtCom= 9.99D-01 WtEn= 1.22D-03
 Coeff-Com:  0.409D-02-0.949D-02-0.331D-01-0.558D-01-0.556D-01 0.195D+00
 Coeff-Com:  0.955D+00
 Coeff-En:   0.000D+00 0.000D+00 0.000D+00 0.000D+00 0.000D+00 0.000D+00
 Coeff-En:   0.100D+01
 Coeff:      0.409D-02-0.948D-02-0.331D-01-0.557D-01-0.555D-01 0.195D+00
 Coeff:      0.955D+00
 Gap=     0.133 Goal=   None    Shift=    0.000
 Gap=     0.147 Goal=   None    Shift=    0.000
 RMSDP=1.23D-05 MaxDP=1.96D-03 DE=-1.80D-04 OVMax= 8.16D-03

 Cycle   8  Pass 1  IDiag  1:
 RMSU=  6.31D-06    CP:  9.66D-01  1.25D+00  9.39D-01  7.84D-01  1.10D+00
                    CP:  1.37D+00  1.52D+00
 E= -1803.79399211050     Delta-E=       -0.000088026984 Rises=F Damp=F
 DIIS: error= 5.88D-05 at cycle   8 NSaved=   8.
 NSaved= 8 IEnMin= 8 EnMin= -1803.79399211050     IErMin= 8 ErrMin= 5.88D-05
 ErrMax= 5.88D-05  0.00D+00 EMaxC= 1.00D-01 BMatC= 2.43D-05 BMatP= 7.57D-05
 IDIUse=1 WtCom= 1.00D+00 WtEn= 0.00D+00
 Coeff-Com:  0.214D-02-0.388D-02-0.205D-01-0.439D-01-0.996D-01-0.141D+00
 Coeff-Com:  0.356D+00 0.952D+00
 Coeff:      0.214D-02-0.388D-02-0.205D-01-0.439D-01-0.996D-01-0.141D+00
 Coeff:      0.356D+00 0.952D+00
 Gap=     0.134 Goal=   None    Shift=    0.000
 Gap=     0.148 Goal=   None    Shift=    0.000
 RMSDP=8.27D-06 MaxDP=1.13D-03 DE=-8.80D-05 OVMax= 4.96D-03

 Cycle   9  Pass 1  IDiag  1:
 RMSU=  3.25D-06    CP:  9.66D-01  1.25D+00  9.40D-01  7.90D-01  1.15D+00
                    CP:  1.54D+00  1.92D+00  1.50D+00
 E= -1803.79402264852     Delta-E=       -0.000030538012 Rises=F Damp=F
 DIIS: error= 2.62D-05 at cycle   9 NSaved=   9.
 NSaved= 9 IEnMin= 9 EnMin= -1803.79402264852     IErMin= 9 ErrMin= 2.62D-05
 ErrMax= 2.62D-05  0.00D+00 EMaxC= 1.00D-01 BMatC= 4.49D-06 BMatP= 2.43D-05
 IDIUse=1 WtCom= 1.00D+00 WtEn= 0.00D+00
 Coeff-Com: -0.399D-03 0.120D-02 0.249D-02 0.840D-03-0.158D-01-0.833D-01
 Coeff-Com: -0.139D+00 0.264D+00 0.969D+00
 Coeff:     -0.399D-03 0.120D-02 0.249D-02 0.840D-03-0.158D-01-0.833D-01
 Coeff:     -0.139D+00 0.264D+00 0.969D+00
 Gap=     0.134 Goal=   None    Shift=    0.000
 Gap=     0.149 Goal=   None    Shift=    0.000
 RMSDP=3.89D-06 MaxDP=4.92D-04 DE=-3.05D-05 OVMax= 1.97D-03

 Cycle  10  Pass 1  IDiag  1:
 RMSU=  1.50D-06    CP:  9.66D-01  1.25D+00  9.41D-01  7.91D-01  1.17D+00
                    CP:  1.60D+00  2.08D+00  1.86D+00  1.33D+00
 E= -1803.79402781932     Delta-E=       -0.000005170808 Rises=F Damp=F
 DIIS: error= 1.27D-05 at cycle  10 NSaved=  10.
 NSaved=10 IEnMin=10 EnMin= -1803.79402781932     IErMin=10 ErrMin= 1.27D-05
 ErrMax= 1.27D-05  0.00D+00 EMaxC= 1.00D-01 BMatC= 1.47D-06 BMatP= 4.49D-06
 IDIUse=1 WtCom= 1.00D+00 WtEn= 0.00D+00
 Coeff-Com: -0.637D-03 0.142D-02 0.554D-02 0.946D-02 0.125D-01-0.942D-02
 Coeff-Com: -0.138D+00-0.491D-01 0.476D+00 0.692D+00
 Coeff:     -0.637D-03 0.142D-02 0.554D-02 0.946D-02 0.125D-01-0.942D-02
 Coeff:     -0.138D+00-0.491D-01 0.476D+00 0.692D+00
 Gap=     0.134 Goal=   None    Shift=    0.000
 Gap=     0.149 Goal=   None    Shift=    0.000
 RMSDP=1.11D-06 MaxDP=1.59D-04 DE=-5.17D-06 OVMax= 5.47D-04

 Cycle  11  Pass 1  IDiag  1:
 RMSU=  6.14D-07    CP:  9.66D-01  1.25D+00  9.41D-01  7.92D-01  1.17D+00
                    CP:  1.61D+00  2.09D+00  1.96D+00  1.47D+00  1.19D+00
 E= -1803.79402861379     Delta-E=       -0.000000794465 Rises=F Damp=F
 DIIS: error= 6.42D-06 at cycle  11 NSaved=  11.
 NSaved=11 IEnMin=11 EnMin= -1803.79402861379     IErMin=11 ErrMin= 6.42D-06
 ErrMax= 6.42D-06  0.00D+00 EMaxC= 1.00D-01 BMatC= 2.05D-07 BMatP= 1.47D-06
 IDIUse=1 WtCom= 1.00D+00 WtEn= 0.00D+00
 Coeff-Com: -0.120D-03 0.224D-03 0.129D-02 0.273D-02 0.652D-02 0.112D-01
 Coeff-Com: -0.261D-01-0.534D-01-0.133D-01 0.220D+00 0.851D+00
 Coeff:     -0.120D-03 0.224D-03 0.129D-02 0.273D-02 0.652D-02 0.112D-01
 Coeff:     -0.261D-01-0.534D-01-0.133D-01 0.220D+00 0.851D+00
 Gap=     0.134 Goal=   None    Shift=    0.000
 Gap=     0.149 Goal=   None    Shift=    0.000
 RMSDP=5.31D-07 MaxDP=5.37D-05 DE=-7.94D-07 OVMax= 3.07D-04

 Cycle  12  Pass 1  IDiag  1:
 RMSU=  3.27D-07    CP:  9.66D-01  1.25D+00  9.41D-01  7.92D-01  1.17D+00
                    CP:  1.61D+00  2.09D+00  1.98D+00  1.53D+00  1.32D+00
                    CP:  1.43D+00
 E= -1803.79402884705     Delta-E=       -0.000000233264 Rises=F Damp=F
 DIIS: error= 3.79D-06 at cycle  12 NSaved=  12.
 NSaved=12 IEnMin=12 EnMin= -1803.79402884705     IErMin=12 ErrMin= 3.79D-06
 ErrMax= 3.79D-06  0.00D+00 EMaxC= 1.00D-01 BMatC= 6.63D-08 BMatP= 2.05D-07
 IDIUse=1 WtCom= 1.00D+00 WtEn= 0.00D+00
 Coeff-Com:  0.113D-03-0.264D-03-0.912D-03-0.150D-02-0.106D-02 0.543D-02
 Coeff-Com:  0.210D-01 0.342D-02-0.116D+00-0.982D-01 0.248D+00 0.940D+00
 Coeff:      0.113D-03-0.264D-03-0.912D-03-0.150D-02-0.106D-02 0.543D-02
 Coeff:      0.210D-01 0.342D-02-0.116D+00-0.982D-01 0.248D+00 0.940D+00
 Gap=     0.134 Goal=   None    Shift=    0.000
 Gap=     0.149 Goal=   None    Shift=    0.000
 RMSDP=3.80D-07 MaxDP=4.04D-05 DE=-2.33D-07 OVMax= 2.97D-04

 Cycle  13  Pass 1  IDiag  1:
 RMSU=  1.82D-07    CP:  9.66D-01  1.25D+00  9.41D-01  7.93D-01  1.17D+00
                    CP:  1.61D+00  2.08D+00  1.98D+00  1.53D+00  1.42D+00
                    CP:  1.79D+00  1.48D+00
 E= -1803.79402895846     Delta-E=       -0.000000111410 Rises=F Damp=F
 DIIS: error= 2.70D-06 at cycle  13 NSaved=  13.
 NSaved=13 IEnMin=13 EnMin= -1803.79402895846     IErMin=13 ErrMin= 2.70D-06
 ErrMax= 2.70D-06  0.00D+00 EMaxC= 1.00D-01 BMatC= 2.77D-08 BMatP= 6.63D-08
 IDIUse=1 WtCom= 1.00D+00 WtEn= 0.00D+00
 Coeff-Com:  0.787D-04-0.164D-03-0.761D-03-0.150D-02-0.239D-02-0.143D-02
 Coeff-Com:  0.154D-01 0.213D-01-0.433D-01-0.108D+00-0.197D+00 0.377D+00
 Coeff-Com:  0.941D+00
 Coeff:      0.787D-04-0.164D-03-0.761D-03-0.150D-02-0.239D-02-0.143D-02
 Coeff:      0.154D-01 0.213D-01-0.433D-01-0.108D+00-0.197D+00 0.377D+00
 Coeff:      0.941D+00
 Gap=     0.134 Goal=   None    Shift=    0.000
 Gap=     0.149 Goal=   None    Shift=    0.000
 RMSDP=2.77D-07 MaxDP=2.53D-05 DE=-1.11D-07 OVMax= 2.33D-04

 Cycle  14  Pass 1  IDiag  1:
 RMSU=  9.89D-08    CP:  9.66D-01  1.25D+00  9.41D-01  7.92D-01  1.17D+00
                    CP:  1.61D+00  2.08D+00  1.99D+00  1.53D+00  1.47D+00
                    CP:  2.01D+00  1.96D+00  1.67D+00
 E= -1803.79402901157     Delta-E=       -0.000000053104 Rises=F Damp=F
 DIIS: error= 1.74D-06 at cycle  14 NSaved=  14.
 NSaved=14 IEnMin=14 EnMin= -1803.79402901157     IErMin=14 ErrMin= 1.74D-06
 ErrMax= 1.74D-06  0.00D+00 EMaxC= 1.00D-01 BMatC= 8.72D-09 BMatP= 2.77D-08
 IDIUse=1 WtCom= 1.00D+00 WtEn= 0.00D+00
 Coeff-Com: -0.195D-04 0.508D-04 0.103D-03 0.475D-04-0.464D-03-0.307D-02
 Coeff-Com: -0.355D-02 0.760D-02 0.323D-01-0.238D-03-0.188D+00-0.239D+00
 Coeff-Com:  0.356D+00 0.104D+01
 Coeff:     -0.195D-04 0.508D-04 0.103D-03 0.475D-04-0.464D-03-0.307D-02
 Coeff:     -0.355D-02 0.760D-02 0.323D-01-0.238D-03-0.188D+00-0.239D+00
 Coeff:      0.356D+00 0.104D+01
 Gap=     0.134 Goal=   None    Shift=    0.000
 Gap=     0.149 Goal=   None    Shift=    0.000
 RMSDP=2.20D-07 MaxDP=2.11D-05 DE=-5.31D-08 OVMax= 1.95D-04

 Cycle  15  Pass 1  IDiag  1:
 RMSU=  7.11D-08    CP:  9.66D-01  1.25D+00  9.41D-01  7.92D-01  1.17D+00
                    CP:  1.61D+00  2.08D+00  1.98D+00  1.54D+00  1.50D+00
                    CP:  2.16D+00  2.27D+00  2.43D+00  1.54D+00
 E= -1803.79402903210     Delta-E=       -0.000000020530 Rises=F Damp=F
 DIIS: error= 8.96D-07 at cycle  15 NSaved=  15.
 NSaved=15 IEnMin=15 EnMin= -1803.79402903210     IErMin=15 ErrMin= 8.96D-07
 ErrMax= 8.96D-07  0.00D+00 EMaxC= 1.00D-01 BMatC= 3.00D-09 BMatP= 8.72D-09
 IDIUse=1 WtCom= 1.00D+00 WtEn= 0.00D+00
 Coeff-Com: -0.286D-04 0.649D-04 0.244D-03 0.401D-03 0.357D-03-0.102D-02
 Coeff-Com: -0.563D-02-0.240D-02 0.255D-01 0.294D-01-0.265D-01-0.206D+00
 Coeff-Com: -0.108D+00 0.509D+00 0.785D+00
 Coeff:     -0.286D-04 0.649D-04 0.244D-03 0.401D-03 0.357D-03-0.102D-02
 Coeff:     -0.563D-02-0.240D-02 0.255D-01 0.294D-01-0.265D-01-0.206D+00
 Coeff:     -0.108D+00 0.509D+00 0.785D+00
 Gap=     0.134 Goal=   None    Shift=    0.000
 Gap=     0.149 Goal=   None    Shift=    0.000
 RMSDP=8.70D-08 MaxDP=8.92D-06 DE=-2.05D-08 OVMax= 5.90D-05

 Cycle  16  Pass 1  IDiag  1:
 RMSU=  3.05D-08    CP:  9.66D-01  1.25D+00  9.41D-01  7.92D-01  1.17D+00
                    CP:  1.61D+00  2.08D+00  1.98D+00  1.54D+00  1.51D+00
                    CP:  2.20D+00  2.38D+00  2.71D+00  1.93D+00  1.19D+00
 E= -1803.79402903552     Delta-E=       -0.000000003418 Rises=F Damp=F
 DIIS: error= 3.32D-07 at cycle  16 NSaved=  16.
 NSaved=16 IEnMin=16 EnMin= -1803.79402903552     IErMin=16 ErrMin= 3.32D-07
 ErrMax= 3.32D-07  0.00D+00 EMaxC= 1.00D-01 BMatC= 6.01D-10 BMatP= 3.00D-09
 IDIUse=1 WtCom= 1.00D+00 WtEn= 0.00D+00
 Coeff-Com: -0.390D-05 0.759D-05 0.647D-04 0.139D-03 0.229D-03 0.509D-03
 Coeff-Com: -0.119D-02-0.333D-02 0.789D-03 0.118D-01 0.489D-01-0.142D-01
 Coeff-Com: -0.161D+00-0.106D+00 0.305D+00 0.919D+00
 Coeff:     -0.390D-05 0.759D-05 0.647D-04 0.139D-03 0.229D-03 0.509D-03
 Coeff:     -0.119D-02-0.333D-02 0.789D-03 0.118D-01 0.489D-01-0.142D-01
 Coeff:     -0.161D+00-0.106D+00 0.305D+00 0.919D+00
 Gap=     0.134 Goal=   None    Shift=    0.000
 Gap=     0.149 Goal=   None    Shift=    0.000
 RMSDP=4.77D-08 MaxDP=4.34D-06 DE=-3.42D-09 OVMax= 3.53D-05

 Cycle  17  Pass 1  IDiag  1:
 RMSU=  1.66D-08    CP:  9.66D-01  1.25D+00  9.41D-01  7.92D-01  1.17D+00
                    CP:  1.61D+00  2.08D+00  1.98D+00  1.54D+00  1.51D+00
                    CP:  2.21D+00  2.43D+00  2.86D+00  2.12D+00  1.46D+00
                    CP:  1.30D+00
 E= -1803.79402903635     Delta-E=       -0.000000000837 Rises=F Damp=F
 DIIS: error= 1.06D-07 at cycle  17 NSaved=  17.
 NSaved=17 IEnMin=17 EnMin= -1803.79402903635     IErMin=17 ErrMin= 1.06D-07
 ErrMax= 1.06D-07  0.00D+00 EMaxC= 1.00D-01 BMatC= 9.64D-11 BMatP= 6.01D-10
 IDIUse=1 WtCom= 1.00D+00 WtEn= 0.00D+00
 Coeff-Com:  0.375D-05-0.879D-05-0.203D-04-0.237D-04-0.212D-05 0.333D-03
 Coeff-Com:  0.591D-03-0.596D-03-0.391D-02-0.212D-02 0.187D-01 0.299D-01
 Coeff-Com: -0.247D-01-0.114D+00-0.525D-01 0.280D+00 0.868D+00
 Coeff:      0.375D-05-0.879D-05-0.203D-04-0.237D-04-0.212D-05 0.333D-03
 Coeff:      0.591D-03-0.596D-03-0.391D-02-0.212D-02 0.187D-01 0.299D-01
 Coeff:     -0.247D-01-0.114D+00-0.525D-01 0.280D+00 0.868D+00
 Gap=     0.134 Goal=   None    Shift=    0.000
 Gap=     0.149 Goal=   None    Shift=    0.000
 RMSDP=1.32D-08 MaxDP=1.52D-06 DE=-8.37D-10 OVMax= 7.81D-06

 Cycle  18  Pass 1  IDiag  1:
 RMSU=  6.18D-09    CP:  9.66D-01  1.25D+00  9.41D-01  7.92D-01  1.17D+00
                    CP:  1.61D+00  2.08D+00  1.98D+00  1.54D+00  1.51D+00
                    CP:  2.21D+00  2.44D+00  2.89D+00  2.15D+00  1.52D+00
                    CP:  1.53D+00  1.26D+00
 E= -1803.79402903648     Delta-E=       -0.000000000124 Rises=F Damp=F
 DIIS: error= 4.80D-08 at cycle  18 NSaved=  18.
 NSaved=18 IEnMin=18 EnMin= -1803.79402903648     IErMin=18 ErrMin= 4.80D-08
 ErrMax= 4.80D-08  0.00D+00 EMaxC= 1.00D-01 BMatC= 2.41D-11 BMatP= 9.64D-11
 IDIUse=1 WtCom= 1.00D+00 WtEn= 0.00D+00
 Coeff-Com:  0.232D-05-0.512D-05-0.213D-04-0.371D-04-0.482D-04 0.480D-04
 Coeff-Com:  0.491D-03 0.406D-03-0.173D-02-0.342D-02-0.161D-02 0.157D-01
 Coeff-Com:  0.218D-01-0.285D-01-0.882D-01-0.643D-01 0.370D+00 0.779D+00
 Coeff:      0.232D-05-0.512D-05-0.213D-04-0.371D-04-0.482D-04 0.480D-04
 Coeff:      0.491D-03 0.406D-03-0.173D-02-0.342D-02-0.161D-02 0.157D-01
 Coeff:      0.218D-01-0.285D-01-0.882D-01-0.643D-01 0.370D+00 0.779D+00
 Gap=     0.134 Goal=   None    Shift=    0.000
 Gap=     0.149 Goal=   None    Shift=    0.000
 RMSDP=5.73D-09 MaxDP=5.24D-07 DE=-1.24D-10 OVMax= 3.35D-06

 Error on total polarization charges =  0.02571
 SCF Done:  E(UM062X) =  -1803.79402904     A.U. after   18 cycles
            NFock= 18  Conv=0.57D-08     -V/T= 2.0054
 <Sx>= 0.0000 <Sy>= 0.0000 <Sz>= 0.5000 <S**2>= 0.8032 S= 0.5263
 <L.S>= 0.000000000000E+00
 KE= 1.794059950684D+03 PE=-1.262912051940D+04 EE= 4.833658403338D+03
 Annihilation of the first spin contaminant:
 S**2 before annihilation     0.8032,   after     0.7521
 Leave Link  502 at Thu Nov  6 13:29:42 2025, MaxMem= 30870077440 cpu:           82583.1 elap:            1308.4
 (Enter /public/software/gauss/g16/l601.exe)
 Copying SCF densities to generalized density rwf, IOpCl= 1 IROHF=0.

 **********************************************************************

            Population analysis using the SCF density.

 **********************************************************************

 Orbital symmetries:
 Alpha Orbitals:
       Occupied  (A) (A) (A) (A) (A) (A) (A) (A) (A) (A) (A) (A)
                 (A) (A) (A) (A) (A) (A) (A) (A) (A) (A) (A) (A)
                 (A) (A) (A) (A) (A) (A) (A) (A) (A) (A) (A) (A)
                 (A) (A) (A) (A) (A) (A) (A) (A) (A) (A) (A) (A)
                 (A) (A) (A) (A) (A) (A) (A) (A) (A) (A) (A) (A)
                 (A) (A) (A) (A) (A) (A) (A) (A) (A) (A) (A) (A)
                 (A) (A) (A) (A) (A) (A) (A) (A) (A) (A) (A) (A)
                 (A) (A) (A) (A) (A) (A) (A) (A) (A) (A) (A) (A)
                 (A) (A) (A) (A) (A) (A) (A) (A) (A) (A) (A) (A)
                 (A) (A) (A) (A) (A) (A) (A) (A) (A) (A) (A) (A)
                 (A) (A) (A) (A) (A) (A) (A) (A) (A) (A) (A) (A)
                 (A) (A) (A) (A) (A) (A) (A) (A) (A) (A)
       Virtual   (A) (A) (A) (A) (A) (A) (A) (A) (A) (A) (A) (A)
                 (A) (A) (A) (A) (A) (A) (A) (A) (A) (A) (A) (A)
                 (A) (A) (A) (A) (A) (A) (A) (A) (A) (A) (A) (A)
                 (A) (A) (A) (A) (A) (A) (A) (A) (A) (A) (A) (A)
                 (A) (A) (A) (A) (A) (A) (A) (A) (A) (A) (A) (A)
                 (A) (A) (A) (A) (A) (A) (A) (A) (A) (A) (A) (A)
                 (A) (A) (A) (A) (A) (A) (A) (A) (A) (A) (A) (A)
                 (A) (A) (A) (A) (A) (A) (A) (A) (A) (A) (A) (A)
                 (A) (A) (A) (A) (A) (A) (A) (A) (A) (A) (A) (A)
                 (A) (A) (A) (A) (A) (A) (A) (A) (A) (A) (A) (A)
                 (A) (A) (A) (A) (A) (A) (A) (A) (A) (A) (A) (A)
                 (A) (A) (A) (A) (A) (A) (A) (A) (A) (A) (A) (A)
                 (A) (A) (A) (A) (A) (A) (A) (A) (A) (A) (A) (A)
                 (A) (A) (A) (A) (A) (A) (A) (A) (A) (A) (A) (A)
                 (A) (A) (A) (A) (A) (A) (A) (A) (A) (A) (A) (A)
                 (A) (A) (A) (A) (A) (A) (A) (A) (A) (A) (A) (A)
                 (A) (A) (A) (A) (A) (A) (A) (A) (A) (A) (A) (A)
                 (A) (A) (A) (A) (A) (A) (A) (A) (A) (A) (A) (A)
                 (A) (A) (A) (A) (A) (A) (A) (A) (A) (A) (A) (A)
                 (A) (A) (A) (A) (A) (A) (A) (A) (A) (A) (A) (A)
                 (A) (A) (A) (A) (A) (A) (A) (A) (A) (A) (A) (A)
                 (A) (A) (A) (A) (A) (A) (A) (A) (A) (A) (A) (A)
                 (A) (A) (A) (A) (A) (A) (A) (A) (A) (A) (A) (A)
                 (A) (A) (A) (A) (A) (A) (A) (A) (A) (A) (A) (A)
                 (A) (A) (A) (A) (A) (A) (A) (A) (A) (A) (A) (A)
                 (A) (A) (A) (A) (A) (A) (A) (A) (A) (A) (A) (A)
                 (A) (A) (A) (A) (A) (A) (A) (A) (A) (A) (A) (A)
                 (A) (A) (A) (A) (A) (A) (A) (A) (A) (A) (A) (A)
                 (A) (A) (A) (A) (A) (A) (A) (A) (A) (A) (A) (A)
                 (A) (A) (A) (A) (A) (A) (A) (A) (A) (A) (A) (A)
                 (A) (A) (A) (A) (A) (A) (A) (A) (A) (A) (A) (A)
                 (A) (A) (A) (A) (A) (A) (A) (A) (A) (A) (A) (A)
                 (A) (A) (A) (A) (A) (A) (A) (A) (A) (A) (A) (A)
                 (A) (A) (A) (A) (A) (A) (A) (A) (A) (A) (A) (A)
                 (A) (A) (A) (A) (A) (A) (A) (A) (A) (A) (A) (A)
                 (A) (A) (A) (A) (A) (A) (A) (A) (A) (A) (A) (A)
                 (A) (A) (A) (A) (A) (A) (A) (A) (A) (A) (A) (A)
                 (A) (A) (A) (A) (A) (A) (A) (A) (A) (A) (A) (A)
                 (A) (A) (A) (A) (A) (A) (A) (A) (A) (A) (A) (A)
                 (A) (A) (A) (A) (A) (A) (A) (A) (A) (A) (A) (A)
                 (A) (A) (A) (A) (A) (A) (A) (A) (A) (A) (A) (A)
                 (A) (A) (A) (A) (A) (A) (A) (A) (A) (A) (A) (A)
                 (A) (A) (A) (A) (A) (A) (A) (A) (A) (A) (A) (A)
                 (A) (A) (A) (A) (A) (A) (A) (A) (A) (A) (A) (A)
                 (A) (A) (A) (A) (A) (A) (A) (A) (A) (A) (A) (A)
                 (A) (A) (A) (A) (A) (A) (A) (A) (A) (A) (A) (A)
                 (A) (A) (A) (A) (A) (A) (A) (A) (A) (A) (A) (A)
                 (A) (A) (A) (A) (A) (A) (A) (A) (A) (A) (A) (A)
                 (A) (A) (A) (A) (A) (A) (A) (A) (A) (A) (A) (A)
                 (A) (A) (A) (A) (A) (A) (A) (A) (A) (A) (A) (A)
                 (A) (A) (A) (A) (A) (A) (A) (A) (A) (A) (A) (A)
                 (A) (A) (A) (A) (A) (A) (A) (A) (A) (A) (A) (A)
                 (A) (A) (A) (A) (A) (A) (A) (A) (A) (A) (A) (A)
                 (A) (A) (A) (A) (A) (A) (A) (A) (A) (A) (A) (A)
                 (A) (A) (A) (A) (A) (A) (A) (A) (A) (A) (A) (A)
                 (A) (A) (A) (A) (A) (A) (A) (A) (A) (A) (A) (A)
                 (A) (A) (A) (A) (A) (A) (A) (A) (A) (A) (A) (A)
                 (A) (A) (A) (A) (A) (A) (A) (A) (A) (A) (A) (A)
                 (A) (A) (A) (A) (A) (A) (A) (A) (A) (A) (A) (A)
                 (A) (A) (A) (A) (A) (A) (A) (A) (A) (A) (A) (A)
                 (A) (A) (A) (A) (A) (A) (A) (A) (A) (A) (A) (A)
                 (A) (A) (A) (A) (A) (A) (A) (A) (A) (A) (A) (A)
                 (A) (A) (A) (A) (A) (A) (A) (A) (A) (A) (A) (A)
                 (A) (A) (A) (A) (A) (A) (A) (A) (A) (A) (A) (A)
                 (A) (A) (A) (A) (A) (A) (A) (A) (A) (A) (A) (A)
                 (A) (A) (A) (A) (A) (A) (A) (A) (A) (A) (A) (A)
                 (A) (A) (A) (A) (A) (A) (A) (A) (A) (A) (A) (A)
                 (A) (A) (A) (A) (A) (A) (A) (A) (A) (A) (A) (A)
                 (A) (A) (A) (A) (A) (A) (A) (A) (A) (A) (A) (A)
                 (A) (A) (A) (A) (A) (A) (A) (A) (A) (A) (A) (A)
                 (A) (A) (A) (A) (A) (A) (A) (A) (A) (A) (A) (A)
                 (A) (A) (A) (A) (A) (A) (A) (A) (A) (A) (A) (A)
                 (A) (A) (A) (A) (A) (A) (A) (A) (A) (A) (A) (A)
                 (A) (A) (A) (A) (A) (A) (A) (A) (A) (A) (A) (A)
                 (A) (A) (A) (A) (A) (A) (A) (A) (A) (A) (A) (A)
                 (A) (A) (A) (A) (A) (A) (A) (A) (A) (A) (A) (A)
                 (A) (A) (A) (A) (A) (A) (A) (A) (A) (A) (A) (A)
                 (A) (A) (A) (A) (A) (A) (A) (A) (A) (A) (A) (A)
                 (A) (A) (A) (A) (A) (A) (A) (A) (A) (A) (A) (A)
                 (A) (A) (A) (A) (A) (A) (A) (A) (A) (A) (A) (A)
                 (A) (A) (A) (A) (A) (A) (A) (A) (A) (A) (A) (A)
                 (A) (A) (A) (A) (A) (A) (A) (A) (A) (A) (A) (A)
                 (A) (A) (A) (A) (A) (A) (A) (A) (A) (A) (A) (A)
                 (A) (A) (A) (A) (A) (A) (A) (A) (A) (A) (A) (A)
                 (A) (A) (A) (A) (A) (A) (A) (A) (A) (A) (A) (A)
                 (A) (A) (A) (A) (A) (A) (A) (A) (A) (A) (A) (A)
                 (A) (A) (A) (A) (A) (A) (A) (A) (A) (A) (A) (A)
                 (A) (A) (A) (A) (A) (A) (A) (A) (A) (A) (A) (A)
                 (A) (A) (A) (A) (A) (A) (A) (A) (A) (A) (A) (A)
                 (A) (A) (A) (A) (A) (A) (A) (A) (A) (A) (A) (A)
                 (A) (A) (A) (A) (A) (A) (A) (A) (A) (A) (A) (A)
                 (A) (A) (A) (A) (A) (A) (A) (A) (A) (A) (A) (A)
                 (A) (A) (A) (A) (A) (A) (A) (A) (A) (A) (A) (A)
                 (A) (A) (A) (A) (A) (A) (A) (A) (A) (A) (A) (A)
                 (A) (A) (A) (A) (A) (A) (A) (A) (A) (A) (A) (A)
                 (A) (A) (A) (A) (A) (A) (A) (A) (A) (A) (A) (A)
                 (A) (A) (A) (A) (A) (A) (A) (A) (A) (A) (A) (A)
                 (A) (A) (A) (A) (A) (A) (A) (A) (A) (A) (A) (A)
                 (A) (A) (A) (A) (A) (A) (A) (A) (A) (A) (A) (A)
                 (A) (A) (A) (A) (A) (A) (A) (A) (A) (A) (A) (A)
                 (A) (A) (A) (A) (A) (A) (A) (A) (A) (A) (A) (A)
                 (A) (A) (A) (A) (A) (A) (A) (A) (A) (A) (A) (A)
                 (A) (A) (A) (A) (A) (A) (A) (A) (A) (A) (A) (A)
                 (A) (A) (A) (A) (A) (A) (A) (A) (A) (A) (A) (A)
                 (A) (A) (A) (A) (A) (A) (A) (A) (A) (A) (A) (A)
                 (A) (A) (A) (A) (A) (A) (A) (A) (A) (A) (A) (A)
                 (A) (A) (A) (A) (A) (A) (A) (A) (A) (A) (A) (A)
                 (A) (A) (A) (A) (A) (A) (A) (A) (A) (A) (A) (A)
                 (A) (A) (A) (A) (A) (A) (A) (A) (A) (A) (A) (A)
                 (A) (A) (A) (A) (A) (A) (A) (A) (A) (A) (A) (A)
                 (A) (A) (A) (A) (A) (A) (A) (A) (A) (A) (A) (A)
                 (A) (A) (A) (A) (A) (A) (A) (A) (A) (A) (A) (A)
                 (A) (A) (A) (A) (A) (A) (A) (A) (A) (A) (A) (A)
                 (A) (A) (A) (A) (A) (A) (A) (A) (A) (A) (A) (A)
                 (A) (A) (A) (A) (A) (A) (A) (A) (A) (A) (A) (A)
                 (A) (A) (A) (A) (A) (A) (A) (A) (A) (A) (A) (A)
                 (A) (A) (A) (A) (A) (A) (A) (A) (A) (A) (A) (A)
                 (A) (A) (A) (A) (A) (A) (A) (A) (A) (A) (A) (A)
                 (A) (A) (A) (A) (A) (A) (A) (A) (A) (A) (A) (A)
                 (A) (A) (A) (A) (A) (A) (A) (A) (A) (A) (A) (A)
                 (A) (A) (A) (A) (A) (A) (A) (A) (A) (A) (A) (A)
                 (A) (A) (A) (A) (A) (A) (A) (A) (A) (A) (A) (A)
                 (A)
 Beta  Orbitals:
       Occupied  (A) (A) (A) (A) (A) (A) (A) (A) (A) (A) (A) (A)
                 (A) (A) (A) (A) (A) (A) (A) (A) (A) (A) (A) (A)
                 (A) (A) (A) (A) (A) (A) (A) (A) (A) (A) (A) (A)
                 (A) (A) (A) (A) (A) (A) (A) (A) (A) (A) (A) (A)
                 (A) (A) (A) (A) (A) (A) (A) (A) (A) (A) (A) (A)
                 (A) (A) (A) (A) (A) (A) (A) (A) (A) (A) (A) (A)
                 (A) (A) (A) (A) (A) (A) (A) (A) (A) (A) (A) (A)
                 (A) (A) (A) (A) (A) (A) (A) (A) (A) (A) (A) (A)
                 (A) (A) (A) (A) (A) (A) (A) (A) (A) (A) (A) (A)
                 (A) (A) (A) (A) (A) (A) (A) (A) (A) (A) (A) (A)
                 (A) (A) (A) (A) (A) (A) (A) (A) (A) (A) (A) (A)
                 (A) (A) (A) (A) (A) (A) (A) (A) (A)
       Virtual   (A) (A) (A) (A) (A) (A) (A) (A) (A) (A) (A) (A)
                 (A) (A) (A) (A) (A) (A) (A) (A) (A) (A) (A) (A)
                 (A) (A) (A) (A) (A) (A) (A) (A) (A) (A) (A) (A)
                 (A) (A) (A) (A) (A) (A) (A) (A) (A) (A) (A) (A)
                 (A) (A) (A) (A) (A) (A) (A) (A) (A) (A) (A) (A)
                 (A) (A) (A) (A) (A) (A) (A) (A) (A) (A) (A) (A)
                 (A) (A) (A) (A) (A) (A) (A) (A) (A) (A) (A) (A)
                 (A) (A) (A) (A) (A) (A) (A) (A) (A) (A) (A) (A)
                 (A) (A) (A) (A) (A) (A) (A) (A) (A) (A) (A) (A)
                 (A) (A) (A) (A) (A) (A) (A) (A) (A) (A) (A) (A)
                 (A) (A) (A) (A) (A) (A) (A) (A) (A) (A) (A) (A)
                 (A) (A) (A) (A) (A) (A) (A) (A) (A) (A) (A) (A)
                 (A) (A) (A) (A) (A) (A) (A) (A) (A) (A) (A) (A)
                 (A) (A) (A) (A) (A) (A) (A) (A) (A) (A) (A) (A)
                 (A) (A) (A) (A) (A) (A) (A) (A) (A) (A) (A) (A)
                 (A) (A) (A) (A) (A) (A) (A) (A) (A) (A) (A) (A)
                 (A) (A) (A) (A) (A) (A) (A) (A) (A) (A) (A) (A)
                 (A) (A) (A) (A) (A) (A) (A) (A) (A) (A) (A) (A)
                 (A) (A) (A) (A) (A) (A) (A) (A) (A) (A) (A) (A)
                 (A) (A) (A) (A) (A) (A) (A) (A) (A) (A) (A) (A)
                 (A) (A) (A) (A) (A) (A) (A) (A) (A) (A) (A) (A)
                 (A) (A) (A) (A) (A) (A) (A) (A) (A) (A) (A) (A)
                 (A) (A) (A) (A) (A) (A) (A) (A) (A) (A) (A) (A)
                 (A) (A) (A) (A) (A) (A) (A) (A) (A) (A) (A) (A)
                 (A) (A) (A) (A) (A) (A) (A) (A) (A) (A) (A) (A)
                 (A) (A) (A) (A) (A) (A) (A) (A) (A) (A) (A) (A)
                 (A) (A) (A) (A) (A) (A) (A) (A) (A) (A) (A) (A)
                 (A) (A) (A) (A) (A) (A) (A) (A) (A) (A) (A) (A)
                 (A) (A) (A) (A) (A) (A) (A) (A) (A) (A) (A) (A)
                 (A) (A) (A) (A) (A) (A) (A) (A) (A) (A) (A) (A)
                 (A) (A) (A) (A) (A) (A) (A) (A) (A) (A) (A) (A)
                 (A) (A) (A) (A) (A) (A) (A) (A) (A) (A) (A) (A)
                 (A) (A) (A) (A) (A) (A) (A) (A) (A) (A) (A) (A)
                 (A) (A) (A) (A) (A) (A) (A) (A) (A) (A) (A) (A)
                 (A) (A) (A) (A) (A) (A) (A) (A) (A) (A) (A) (A)
                 (A) (A) (A) (A) (A) (A) (A) (A) (A) (A) (A) (A)
                 (A) (A) (A) (A) (A) (A) (A) (A) (A) (A) (A) (A)
                 (A) (A) (A) (A) (A) (A) (A) (A) (A) (A) (A) (A)
                 (A) (A) (A) (A) (A) (A) (A) (A) (A) (A) (A) (A)
                 (A) (A) (A) (A) (A) (A) (A) (A) (A) (A) (A) (A)
                 (A) (A) (A) (A) (A) (A) (A) (A) (A) (A) (A) (A)
                 (A) (A) (A) (A) (A) (A) (A) (A) (A) (A) (A) (A)
                 (A) (A) (A) (A) (A) (A) (A) (A) (A) (A) (A) (A)
                 (A) (A) (A) (A) (A) (A) (A) (A) (A) (A) (A) (A)
                 (A) (A) (A) (A) (A) (A) (A) (A) (A) (A) (A) (A)
                 (A) (A) (A) (A) (A) (A) (A) (A) (A) (A) (A) (A)
                 (A) (A) (A) (A) (A) (A) (A) (A) (A) (A) (A) (A)
                 (A) (A) (A) (A) (A) (A) (A) (A) (A) (A) (A) (A)
                 (A) (A) (A) (A) (A) (A) (A) (A) (A) (A) (A) (A)
                 (A) (A) (A) (A) (A) (A) (A) (A) (A) (A) (A) (A)
                 (A) (A) (A) (A) (A) (A) (A) (A) (A) (A) (A) (A)
                 (A) (A) (A) (A) (A) (A) (A) (A) (A) (A) (A) (A)
                 (A) (A) (A) (A) (A) (A) (A) (A) (A) (A) (A) (A)
                 (A) (A) (A) (A) (A) (A) (A) (A) (A) (A) (A) (A)
                 (A) (A) (A) (A) (A) (A) (A) (A) (A) (A) (A) (A)
                 (A) (A) (A) (A) (A) (A) (A) (A) (A) (A) (A) (A)
                 (A) (A) (A) (A) (A) (A) (A) (A) (A) (A) (A) (A)
                 (A) (A) (A) (A) (A) (A) (A) (A) (A) (A) (A) (A)
                 (A) (A) (A) (A) (A) (A) (A) (A) (A) (A) (A) (A)
                 (A) (A) (A) (A) (A) (A) (A) (A) (A) (A) (A) (A)
                 (A) (A) (A) (A) (A) (A) (A) (A) (A) (A) (A) (A)
                 (A) (A) (A) (A) (A) (A) (A) (A) (A) (A) (A) (A)
                 (A) (A) (A) (A) (A) (A) (A) (A) (A) (A) (A) (A)
                 (A) (A) (A) (A) (A) (A) (A) (A) (A) (A) (A) (A)
                 (A) (A) (A) (A) (A) (A) (A) (A) (A) (A) (A) (A)
                 (A) (A) (A) (A) (A) (A) (A) (A) (A) (A) (A) (A)
                 (A) (A) (A) (A) (A) (A) (A) (A) (A) (A) (A) (A)
                 (A) (A) (A) (A) (A) (A) (A) (A) (A) (A) (A) (A)
                 (A) (A) (A) (A) (A) (A) (A) (A) (A) (A) (A) (A)
                 (A) (A) (A) (A) (A) (A) (A) (A) (A) (A) (A) (A)
                 (A) (A) (A) (A) (A) (A) (A) (A) (A) (A) (A) (A)
                 (A) (A) (A) (A) (A) (A) (A) (A) (A) (A) (A) (A)
                 (A) (A) (A) (A) (A) (A) (A) (A) (A) (A) (A) (A)
                 (A) (A) (A) (A) (A) (A) (A) (A) (A) (A) (A) (A)
                 (A) (A) (A) (A) (A) (A) (A) (A) (A) (A) (A) (A)
                 (A) (A) (A) (A) (A) (A) (A) (A) (A) (A) (A) (A)
                 (A) (A) (A) (A) (A) (A) (A) (A) (A) (A) (A) (A)
                 (A) (A) (A) (A) (A) (A) (A) (A) (A) (A) (A) (A)
                 (A) (A) (A) (A) (A) (A) (A) (A) (A) (A) (A) (A)
                 (A) (A) (A) (A) (A) (A) (A) (A) (A) (A) (A) (A)
                 (A) (A) (A) (A) (A) (A) (A) (A) (A) (A) (A) (A)
                 (A) (A) (A) (A) (A) (A) (A) (A) (A) (A) (A) (A)
                 (A) (A) (A) (A) (A) (A) (A) (A) (A) (A) (A) (A)
                 (A) (A) (A) (A) (A) (A) (A) (A) (A) (A) (A) (A)
                 (A) (A) (A) (A) (A) (A) (A) (A) (A) (A) (A) (A)
                 (A) (A) (A) (A) (A) (A) (A) (A) (A) (A) (A) (A)
                 (A) (A) (A) (A) (A) (A) (A) (A) (A) (A) (A) (A)
                 (A) (A) (A) (A) (A) (A) (A) (A) (A) (A) (A) (A)
                 (A) (A) (A) (A) (A) (A) (A) (A) (A) (A) (A) (A)
                 (A) (A) (A) (A) (A) (A) (A) (A) (A) (A) (A) (A)
                 (A) (A) (A) (A) (A) (A) (A) (A) (A) (A) (A) (A)
                 (A) (A) (A) (A) (A) (A) (A) (A) (A) (A) (A) (A)
                 (A) (A) (A) (A) (A) (A) (A) (A) (A) (A) (A) (A)
                 (A) (A) (A) (A) (A) (A) (A) (A) (A) (A) (A) (A)
                 (A) (A) (A) (A) (A) (A) (A) (A) (A) (A) (A) (A)
                 (A) (A) (A) (A) (A) (A) (A) (A) (A) (A) (A) (A)
                 (A) (A) (A) (A) (A) (A) (A) (A) (A) (A) (A) (A)
                 (A) (A) (A) (A) (A) (A) (A) (A) (A) (A) (A) (A)
                 (A) (A) (A) (A) (A) (A) (A) (A) (A) (A) (A) (A)
                 (A) (A) (A) (A) (A) (A) (A) (A) (A) (A) (A) (A)
                 (A) (A) (A) (A) (A) (A) (A) (A) (A) (A) (A) (A)
                 (A) (A) (A) (A) (A) (A) (A) (A) (A) (A) (A) (A)
                 (A) (A) (A) (A) (A) (A) (A) (A) (A) (A) (A) (A)
                 (A) (A) (A) (A) (A) (A) (A) (A) (A) (A) (A) (A)
                 (A) (A) (A) (A) (A) (A) (A) (A) (A) (A) (A) (A)
                 (A) (A) (A) (A) (A) (A) (A) (A) (A) (A) (A) (A)
                 (A) (A) (A) (A) (A) (A) (A) (A) (A) (A) (A) (A)
                 (A) (A) (A) (A) (A) (A) (A) (A) (A) (A) (A) (A)
                 (A) (A) (A) (A) (A) (A) (A) (A) (A) (A) (A) (A)
                 (A) (A) (A) (A) (A) (A) (A) (A) (A) (A) (A) (A)
                 (A) (A) (A) (A) (A) (A) (A) (A) (A) (A) (A) (A)
                 (A) (A) (A) (A) (A) (A) (A) (A) (A) (A) (A) (A)
                 (A) (A) (A) (A) (A) (A) (A) (A) (A) (A) (A) (A)
                 (A) (A) (A) (A) (A) (A) (A) (A) (A) (A) (A) (A)
                 (A) (A) (A) (A) (A) (A) (A) (A) (A) (A) (A) (A)
                 (A) (A) (A) (A) (A) (A) (A) (A) (A) (A) (A) (A)
                 (A) (A) (A) (A) (A) (A) (A) (A) (A) (A) (A) (A)
                 (A) (A) (A) (A) (A) (A) (A) (A) (A) (A) (A) (A)
                 (A) (A) (A) (A) (A) (A) (A) (A) (A) (A) (A) (A)
                 (A) (A) (A) (A) (A) (A) (A) (A) (A) (A) (A) (A)
                 (A) (A) (A) (A) (A) (A) (A) (A) (A) (A) (A) (A)
                 (A) (A) (A) (A) (A) (A) (A) (A) (A) (A) (A) (A)
                 (A) (A)
 The electronic state is 2-A.
 Alpha  occ. eigenvalues --  -25.19033 -25.18892 -14.94945 -14.84994 -14.81669
 Alpha  occ. eigenvalues --  -14.75775 -14.75744 -14.74970 -14.74879 -10.60590
 Alpha  occ. eigenvalues --  -10.58737 -10.58585 -10.57732 -10.57623 -10.56954
 Alpha  occ. eigenvalues --  -10.56946 -10.56761 -10.56678 -10.55896 -10.55876
 Alpha  occ. eigenvalues --  -10.55861 -10.55623 -10.55349 -10.55334 -10.55239
 Alpha  occ. eigenvalues --  -10.55228 -10.54907 -10.54870 -10.54785 -10.54604
 Alpha  occ. eigenvalues --  -10.54587 -10.54516 -10.54060 -10.54052 -10.53828
 Alpha  occ. eigenvalues --  -10.53698 -10.52860 -10.52859 -10.52579 -10.52555
 Alpha  occ. eigenvalues --   -7.11095  -1.30718  -1.27807  -1.27455  -1.10659
 Alpha  occ. eigenvalues --   -1.07865  -1.05869  -1.05045  -1.05033  -0.97579
 Alpha  occ. eigenvalues --   -0.91954  -0.90643  -0.90196  -0.90122  -0.89917
 Alpha  occ. eigenvalues --   -0.88831  -0.88134  -0.86188  -0.85475  -0.85340
 Alpha  occ. eigenvalues --   -0.83091  -0.79629  -0.79421  -0.77433  -0.76255
 Alpha  occ. eigenvalues --   -0.73429  -0.72635  -0.71406  -0.71065  -0.70716
 Alpha  occ. eigenvalues --   -0.68642  -0.68053  -0.66586  -0.64749  -0.64648
 Alpha  occ. eigenvalues --   -0.62822  -0.62759  -0.61157  -0.60948  -0.60900
 Alpha  occ. eigenvalues --   -0.59321  -0.59190  -0.58394  -0.58226  -0.57034
 Alpha  occ. eigenvalues --   -0.56557  -0.55963  -0.54950  -0.54670  -0.54109
 Alpha  occ. eigenvalues --   -0.53500  -0.53349  -0.52516  -0.51799  -0.51516
 Alpha  occ. eigenvalues --   -0.50755  -0.50490  -0.50124  -0.49759  -0.49460
 Alpha  occ. eigenvalues --   -0.49150  -0.48509  -0.48121  -0.48111  -0.48020
 Alpha  occ. eigenvalues --   -0.47835  -0.47393  -0.47085  -0.46492  -0.46465
 Alpha  occ. eigenvalues --   -0.46162  -0.45765  -0.45232  -0.45115  -0.44854
 Alpha  occ. eigenvalues --   -0.44665  -0.43742  -0.42648  -0.42342  -0.42318
 Alpha  occ. eigenvalues --   -0.42166  -0.41289  -0.41192  -0.40478  -0.38987
 Alpha  occ. eigenvalues --   -0.38816  -0.38290  -0.37731  -0.36889  -0.35127
 Alpha  occ. eigenvalues --   -0.34677  -0.34056  -0.33142  -0.32901  -0.32096
 Alpha  occ. eigenvalues --   -0.31122  -0.30560  -0.29398  -0.28310  -0.27992
 Alpha  occ. eigenvalues --   -0.23083  -0.17210
 Alpha virt. eigenvalues --   -0.03764  -0.02008  -0.00895   0.00054   0.00446
 Alpha virt. eigenvalues --    0.00650   0.00909   0.05205   0.05397   0.06297
 Alpha virt. eigenvalues --    0.06707   0.07928   0.08606   0.08710   0.09085
 Alpha virt. eigenvalues --    0.09578   0.09835   0.10065   0.10257   0.10763
 Alpha virt. eigenvalues --    0.10822   0.11284   0.11644   0.11722   0.12563
 Alpha virt. eigenvalues --    0.12728   0.13192   0.13444   0.13798   0.13860
 Alpha virt. eigenvalues --    0.14235   0.14437   0.14512   0.14790   0.14977
 Alpha virt. eigenvalues --    0.15756   0.16057   0.16351   0.16394   0.16761
 Alpha virt. eigenvalues --    0.17156   0.17799   0.18227   0.18649   0.18805
 Alpha virt. eigenvalues --    0.18934   0.19016   0.19308   0.19828   0.20371
 Alpha virt. eigenvalues --    0.20730   0.20954   0.21175   0.21566   0.21756
 Alpha virt. eigenvalues --    0.22200   0.22558   0.22731   0.22927   0.23034
 Alpha virt. eigenvalues --    0.23149   0.23235   0.23360   0.23796   0.24627
 Alpha virt. eigenvalues --    0.24985   0.25094   0.25377   0.25782   0.25960
 Alpha virt. eigenvalues --    0.26134   0.26598   0.26749   0.27320   0.27581
 Alpha virt. eigenvalues --    0.27716   0.27857   0.28245   0.28334   0.28359
 Alpha virt. eigenvalues --    0.28746   0.28841   0.28964   0.29549   0.29867
 Alpha virt. eigenvalues --    0.29971   0.30188   0.30493   0.30711   0.31070
 Alpha virt. eigenvalues --    0.31180   0.31572   0.31641   0.32302   0.32358
 Alpha virt. eigenvalues --    0.32712   0.33164   0.33168   0.33336   0.33629
 Alpha virt. eigenvalues --    0.33963   0.34009   0.34491   0.34716   0.34947
 Alpha virt. eigenvalues --    0.35157   0.35606   0.35715   0.35931   0.36044
 Alpha virt. eigenvalues --    0.36426   0.36885   0.37260   0.37329   0.37384
 Alpha virt. eigenvalues --    0.37682   0.37901   0.37914   0.38309   0.38588
 Alpha virt. eigenvalues --    0.38678   0.38879   0.39192   0.39382   0.39563
 Alpha virt. eigenvalues --    0.39725   0.40242   0.40305   0.40951   0.41059
 Alpha virt. eigenvalues --    0.41460   0.41489   0.41852   0.42136   0.42303
 Alpha virt. eigenvalues --    0.42464   0.42689   0.42973   0.43359   0.43604
 Alpha virt. eigenvalues --    0.43859   0.43975   0.44217   0.44494   0.44678
 Alpha virt. eigenvalues --    0.44816   0.44890   0.44943   0.45520   0.45789
 Alpha virt. eigenvalues --    0.46001   0.46292   0.46426   0.46625   0.46842
 Alpha virt. eigenvalues --    0.47709   0.47814   0.48041   0.48337   0.48727
 Alpha virt. eigenvalues --    0.48838   0.49116   0.49384   0.49749   0.49894
 Alpha virt. eigenvalues --    0.50119   0.50178   0.50277   0.50892   0.50956
 Alpha virt. eigenvalues --    0.51202   0.51515   0.52063   0.52308   0.52674
 Alpha virt. eigenvalues --    0.52778   0.53209   0.53246   0.53365   0.53603
 Alpha virt. eigenvalues --    0.53739   0.53888   0.54074   0.54279   0.54435
 Alpha virt. eigenvalues --    0.54681   0.55324   0.55474   0.55930   0.56154
 Alpha virt. eigenvalues --    0.56369   0.56815   0.56999   0.57581   0.57989
 Alpha virt. eigenvalues --    0.58228   0.58431   0.58517   0.58965   0.59386
 Alpha virt. eigenvalues --    0.60001   0.60269   0.60435   0.61295   0.61503
 Alpha virt. eigenvalues --    0.61989   0.62596   0.63151   0.63300   0.63424
 Alpha virt. eigenvalues --    0.63817   0.64069   0.64313   0.64974   0.65219
 Alpha virt. eigenvalues --    0.65436   0.65576   0.65960   0.66350   0.66820
 Alpha virt. eigenvalues --    0.67051   0.67226   0.67478   0.67554   0.68193
 Alpha virt. eigenvalues --    0.68493   0.68906   0.69097   0.69138   0.69235
 Alpha virt. eigenvalues --    0.69441   0.69960   0.70290   0.70479   0.70625
 Alpha virt. eigenvalues --    0.70897   0.71181   0.71417   0.71794   0.71914
 Alpha virt. eigenvalues --    0.71988   0.72186   0.72347   0.72640   0.72984
 Alpha virt. eigenvalues --    0.73276   0.73699   0.73831   0.74277   0.74516
 Alpha virt. eigenvalues --    0.74564   0.74710   0.75224   0.75848   0.75938
 Alpha virt. eigenvalues --    0.76138   0.76695   0.76770   0.77098   0.77381
 Alpha virt. eigenvalues --    0.77650   0.77939   0.78272   0.78610   0.79267
 Alpha virt. eigenvalues --    0.79452   0.79736   0.79933   0.80158   0.80665
 Alpha virt. eigenvalues --    0.81069   0.81533   0.81882   0.82141   0.82763
 Alpha virt. eigenvalues --    0.83165   0.83574   0.84063   0.84231   0.84518
 Alpha virt. eigenvalues --    0.84933   0.85144   0.85827   0.86111   0.86194
 Alpha virt. eigenvalues --    0.86229   0.86678   0.87294   0.87514   0.87870
 Alpha virt. eigenvalues --    0.88525   0.88835   0.88975   0.89522   0.89753
 Alpha virt. eigenvalues --    0.89776   0.90341   0.90520   0.90600   0.91105
 Alpha virt. eigenvalues --    0.91423   0.92164   0.92770   0.92873   0.93972
 Alpha virt. eigenvalues --    0.94308   0.94576   0.95305   0.95577   0.95711
 Alpha virt. eigenvalues --    0.95975   0.96324   0.96686   0.96984   0.97343
 Alpha virt. eigenvalues --    0.97900   0.97956   0.98687   0.98716   0.98813
 Alpha virt. eigenvalues --    0.99011   0.99578   1.00065   1.00588   1.00904
 Alpha virt. eigenvalues --    1.01162   1.01593   1.01663   1.02077   1.02253
 Alpha virt. eigenvalues --    1.02860   1.02890   1.03019   1.03460   1.03567
 Alpha virt. eigenvalues --    1.04103   1.04220   1.04480   1.05219   1.05703
 Alpha virt. eigenvalues --    1.06075   1.06396   1.06820   1.07034   1.07581
 Alpha virt. eigenvalues --    1.07666   1.07993   1.08432   1.08921   1.09639
 Alpha virt. eigenvalues --    1.09776   1.09922   1.10186   1.11178   1.11405
 Alpha virt. eigenvalues --    1.11763   1.12185   1.12531   1.12723   1.12952
 Alpha virt. eigenvalues --    1.13468   1.13868   1.14249   1.14495   1.14751
 Alpha virt. eigenvalues --    1.14948   1.15155   1.15262   1.15941   1.16067
 Alpha virt. eigenvalues --    1.16280   1.16655   1.16912   1.17690   1.18161
 Alpha virt. eigenvalues --    1.18380   1.19045   1.19078   1.19486   1.20483
 Alpha virt. eigenvalues --    1.20802   1.21088   1.21277   1.21753   1.22083
 Alpha virt. eigenvalues --    1.22691   1.23509   1.23605   1.24060   1.24492
 Alpha virt. eigenvalues --    1.24678   1.25144   1.25338   1.25907   1.26177
 Alpha virt. eigenvalues --    1.26502   1.26653   1.27194   1.27389   1.27557
 Alpha virt. eigenvalues --    1.28202   1.28417   1.29151   1.29445   1.29683
 Alpha virt. eigenvalues --    1.29992   1.30437   1.30866   1.31036   1.32072
 Alpha virt. eigenvalues --    1.32761   1.32896   1.33086   1.33467   1.33882
 Alpha virt. eigenvalues --    1.34138   1.34419   1.34658   1.34875   1.35308
 Alpha virt. eigenvalues --    1.35623   1.35708   1.36118   1.36287   1.36467
 Alpha virt. eigenvalues --    1.37298   1.37389   1.37515   1.37631   1.37783
 Alpha virt. eigenvalues --    1.38006   1.38406   1.38713   1.38789   1.39072
 Alpha virt. eigenvalues --    1.39702   1.40051   1.40992   1.41748   1.41916
 Alpha virt. eigenvalues --    1.42660   1.42852   1.43131   1.44223   1.44519
 Alpha virt. eigenvalues --    1.44704   1.45267   1.45383   1.45918   1.46327
 Alpha virt. eigenvalues --    1.46714   1.46829   1.47252   1.47605   1.47879
 Alpha virt. eigenvalues --    1.48235   1.48802   1.49111   1.49326   1.49494
 Alpha virt. eigenvalues --    1.49979   1.50232   1.50778   1.51062   1.51285
 Alpha virt. eigenvalues --    1.51755   1.52241   1.52409   1.52800   1.52924
 Alpha virt. eigenvalues --    1.53386   1.54001   1.54239   1.54433   1.54719
 Alpha virt. eigenvalues --    1.54745   1.54917   1.55292   1.55373   1.55701
 Alpha virt. eigenvalues --    1.56088   1.56442   1.56544   1.57081   1.57526
 Alpha virt. eigenvalues --    1.58121   1.58139   1.58297   1.59083   1.59456
 Alpha virt. eigenvalues --    1.59599   1.59960   1.60564   1.60677   1.61284
 Alpha virt. eigenvalues --    1.61748   1.61926   1.62669   1.62728   1.63116
 Alpha virt. eigenvalues --    1.63535   1.63942   1.63965   1.64341   1.64571
 Alpha virt. eigenvalues --    1.65193   1.65804   1.66655   1.67120   1.67348
 Alpha virt. eigenvalues --    1.67782   1.68573   1.68971   1.69293   1.69623
 Alpha virt. eigenvalues --    1.69812   1.69878   1.70361   1.70575   1.71053
 Alpha virt. eigenvalues --    1.71155   1.71432   1.71711   1.72345   1.72928
 Alpha virt. eigenvalues --    1.72964   1.73697   1.73853   1.74912   1.75449
 Alpha virt. eigenvalues --    1.76334   1.76516   1.76540   1.77323   1.77538
 Alpha virt. eigenvalues --    1.78520   1.78648   1.79343   1.79967   1.80247
 Alpha virt. eigenvalues --    1.80531   1.80980   1.81303   1.81785   1.82132
 Alpha virt. eigenvalues --    1.82674   1.83062   1.83412   1.83847   1.84027
 Alpha virt. eigenvalues --    1.84754   1.85141   1.85410   1.85752   1.86775
 Alpha virt. eigenvalues --    1.87153   1.87738   1.87985   1.88126   1.88472
 Alpha virt. eigenvalues --    1.88865   1.89770   1.90136   1.90434   1.91170
 Alpha virt. eigenvalues --    1.92435   1.92512   1.93087   1.93621   1.93753
 Alpha virt. eigenvalues --    1.94287   1.94619   1.95279   1.96050   1.96904
 Alpha virt. eigenvalues --    1.97206   1.97439   1.97870   1.98483   1.98744
 Alpha virt. eigenvalues --    1.99516   1.99968   2.00147   2.00496   2.00854
 Alpha virt. eigenvalues --    2.01354   2.01715   2.02325   2.02988   2.03984
 Alpha virt. eigenvalues --    2.04308   2.04649   2.05031   2.05647   2.06292
 Alpha virt. eigenvalues --    2.06959   2.07167   2.07273   2.08942   2.09062
 Alpha virt. eigenvalues --    2.09331   2.09852   2.10167   2.11114   2.11858
 Alpha virt. eigenvalues --    2.11955   2.12507   2.13162   2.13881   2.14767
 Alpha virt. eigenvalues --    2.15472   2.16378   2.16764   2.16975   2.17809
 Alpha virt. eigenvalues --    2.18691   2.18817   2.19677   2.20656   2.20880
 Alpha virt. eigenvalues --    2.21729   2.22655   2.23168   2.23765   2.24898
 Alpha virt. eigenvalues --    2.25085   2.26036   2.26235   2.27006   2.27539
 Alpha virt. eigenvalues --    2.28517   2.29089   2.29504   2.30110   2.30584
 Alpha virt. eigenvalues --    2.31877   2.32331   2.32947   2.33006   2.33666
 Alpha virt. eigenvalues --    2.34164   2.35527   2.35803   2.36345   2.36695
 Alpha virt. eigenvalues --    2.37383   2.37568   2.38642   2.38866   2.38927
 Alpha virt. eigenvalues --    2.39098   2.39192   2.39379   2.40243   2.40597
 Alpha virt. eigenvalues --    2.40947   2.41104   2.41469   2.41974   2.42242
 Alpha virt. eigenvalues --    2.43070   2.43644   2.43777   2.44933   2.45875
 Alpha virt. eigenvalues --    2.46454   2.46957   2.47783   2.48446   2.49021
 Alpha virt. eigenvalues --    2.49897   2.50315   2.50589   2.51598   2.52561
 Alpha virt. eigenvalues --    2.52990   2.54227   2.55424   2.56060   2.56277
 Alpha virt. eigenvalues --    2.57466   2.57738   2.59283   2.59485   2.60118
 Alpha virt. eigenvalues --    2.60721   2.61676   2.61887   2.62316   2.63125
 Alpha virt. eigenvalues --    2.63575   2.63860   2.64789   2.65561   2.66394
 Alpha virt. eigenvalues --    2.66464   2.66878   2.67140   2.67548   2.67842
 Alpha virt. eigenvalues --    2.69048   2.69182   2.69578   2.70293   2.70456
 Alpha virt. eigenvalues --    2.70704   2.70892   2.71134   2.71375   2.72555
 Alpha virt. eigenvalues --    2.73226   2.73457   2.73980   2.74226   2.74653
 Alpha virt. eigenvalues --    2.74893   2.75309   2.75712   2.76552   2.76862
 Alpha virt. eigenvalues --    2.77062   2.77178   2.77771   2.77892   2.78282
 Alpha virt. eigenvalues --    2.78578   2.78776   2.79204   2.79827   2.79921
 Alpha virt. eigenvalues --    2.80057   2.80955   2.81039   2.81572   2.81645
 Alpha virt. eigenvalues --    2.81927   2.82315   2.82707   2.82972   2.83418
 Alpha virt. eigenvalues --    2.83480   2.84262   2.84718   2.85006   2.85398
 Alpha virt. eigenvalues --    2.85925   2.86033   2.86796   2.87011   2.87226
 Alpha virt. eigenvalues --    2.87462   2.88032   2.89028   2.89156   2.89732
 Alpha virt. eigenvalues --    2.89937   2.90462   2.90822   2.91455   2.91999
 Alpha virt. eigenvalues --    2.92173   2.92493   2.92713   2.93179   2.93346
 Alpha virt. eigenvalues --    2.93469   2.93611   2.94087   2.94459   2.94882
 Alpha virt. eigenvalues --    2.94916   2.95701   2.96174   2.96457   2.96686
 Alpha virt. eigenvalues --    2.97164   2.97544   2.98055   2.98076   2.98398
 Alpha virt. eigenvalues --    2.98987   2.99297   2.99588   2.99871   3.00198
 Alpha virt. eigenvalues --    3.00391   3.00412   3.00826   3.01454   3.01604
 Alpha virt. eigenvalues --    3.01747   3.02021   3.02108   3.02331   3.02529
 Alpha virt. eigenvalues --    3.02855   3.03400   3.03556   3.04135   3.04519
 Alpha virt. eigenvalues --    3.04923   3.05095   3.05301   3.05646   3.05901
 Alpha virt. eigenvalues --    3.06260   3.06654   3.06810   3.06887   3.07235
 Alpha virt. eigenvalues --    3.07303   3.07481   3.08109   3.08643   3.08923
 Alpha virt. eigenvalues --    3.09111   3.09519   3.09649   3.10032   3.10238
 Alpha virt. eigenvalues --    3.10508   3.11179   3.11476   3.11798   3.12371
 Alpha virt. eigenvalues --    3.12675   3.12979   3.13310   3.13590   3.14282
 Alpha virt. eigenvalues --    3.14475   3.14640   3.14784   3.15749   3.16075
 Alpha virt. eigenvalues --    3.16335   3.16640   3.16867   3.17460   3.17546
 Alpha virt. eigenvalues --    3.17799   3.18044   3.18339   3.18872   3.18978
 Alpha virt. eigenvalues --    3.19161   3.19792   3.20550   3.20581   3.20826
 Alpha virt. eigenvalues --    3.20977   3.21242   3.21348   3.21512   3.21786
 Alpha virt. eigenvalues --    3.22313   3.22456   3.22778   3.23297   3.23675
 Alpha virt. eigenvalues --    3.23876   3.24112   3.24304   3.24637   3.25271
 Alpha virt. eigenvalues --    3.25727   3.26557   3.26829   3.27138   3.27384
 Alpha virt. eigenvalues --    3.27555   3.27649   3.27957   3.28265   3.28898
 Alpha virt. eigenvalues --    3.29425   3.29780   3.30267   3.30650   3.30935
 Alpha virt. eigenvalues --    3.31119   3.31336   3.31754   3.31979   3.32475
 Alpha virt. eigenvalues --    3.32651   3.32756   3.33449   3.33489   3.33936
 Alpha virt. eigenvalues --    3.34047   3.34373   3.34818   3.35095   3.35598
 Alpha virt. eigenvalues --    3.36029   3.36249   3.36633   3.36887   3.37161
 Alpha virt. eigenvalues --    3.37811   3.37876   3.38157   3.38543   3.38823
 Alpha virt. eigenvalues --    3.39171   3.39365   3.39769   3.40022   3.40184
 Alpha virt. eigenvalues --    3.40573   3.41007   3.41341   3.42079   3.42189
 Alpha virt. eigenvalues --    3.42791   3.43169   3.43258   3.43473   3.43928
 Alpha virt. eigenvalues --    3.44425   3.44985   3.45296   3.45753   3.45924
 Alpha virt. eigenvalues --    3.46223   3.46693   3.47186   3.47688   3.47964
 Alpha virt. eigenvalues --    3.47969   3.48810   3.49027   3.49697   3.49848
 Alpha virt. eigenvalues --    3.50613   3.51185   3.51464   3.51794   3.52182
 Alpha virt. eigenvalues --    3.52346   3.52804   3.53184   3.53389   3.53732
 Alpha virt. eigenvalues --    3.53878   3.54145   3.54462   3.54867   3.55211
 Alpha virt. eigenvalues --    3.55569   3.55602   3.55854   3.56288   3.57111
 Alpha virt. eigenvalues --    3.57284   3.57875   3.58184   3.58417   3.59044
 Alpha virt. eigenvalues --    3.59138   3.59704   3.60387   3.60977   3.61146
 Alpha virt. eigenvalues --    3.61543   3.61847   3.62295   3.63154   3.63342
[...]
    65   Atom        0.000039      0.003374      0.000064
 --------------------------------------------------------


 ---------------------------------------------------------------------------------
              Anisotropic Spin Dipole Couplings in Principal Axis System
 ---------------------------------------------------------------------------------

       Atom             a.u.   MegaHertz   Gauss  10(-4) cm-1        Axes

              Baa    -0.0016    -0.215    -0.077    -0.072  0.7650  0.6423 -0.0475
     1 C(13)  Bbb     0.0000     0.002     0.001     0.001  0.0453  0.0199  0.9988
              Bcc     0.0016     0.213     0.076     0.071 -0.6424  0.7662  0.0139
 
              Baa    -0.0782   -10.488    -3.742    -3.498  0.9865  0.1625 -0.0200
     2 C(13)  Bbb    -0.0769   -10.314    -3.680    -3.440 -0.1630  0.9861 -0.0325
              Bcc     0.1550    20.802     7.423     6.939  0.0145  0.0353  0.9993
 
              Baa    -0.0695    -9.327    -3.328    -3.111  0.0024  0.0389  0.9992
     3 C(13)  Bbb     0.0336     4.506     1.608     1.503 -0.1387  0.9896 -0.0382
              Bcc     0.0359     4.821     1.720     1.608  0.9903  0.1386 -0.0078
 
              Baa    -0.0958   -12.860    -4.589    -4.290 -0.5034  0.8640 -0.0069
     4 C(13)  Bbb    -0.0926   -12.430    -4.435    -4.146  0.8637  0.5029 -0.0341
              Bcc     0.1885    25.290     9.024     8.436  0.0260  0.0232  0.9994
 
              Baa    -0.0647    -8.678    -3.097    -2.895  0.0543 -0.0599  0.9967
     5 C(13)  Bbb     0.0263     3.533     1.261     1.178 -0.5766  0.8131  0.0803
              Bcc     0.0383     5.145     1.836     1.716  0.8152  0.5791 -0.0096
 
              Baa    -0.0855   -11.468    -4.092    -3.825  0.1385  0.9877  0.0722
     6 C(13)  Bbb    -0.0800   -10.735    -3.831    -3.581  0.9884 -0.1333 -0.0728
              Bcc     0.1655    22.203     7.922     7.406  0.0622 -0.0814  0.9947
 
              Baa    -0.0224    -3.003    -1.072    -1.002  0.0604 -0.0913  0.9940
     7 C(13)  Bbb     0.0083     1.117     0.399     0.373 -0.0047  0.9958  0.0917
              Bcc     0.0141     1.886     0.673     0.629  0.9982  0.0102 -0.0598
 
              Baa    -0.0202    -2.710    -0.967    -0.904 -0.3912  0.9147  0.1010
     8 C(13)  Bbb    -0.0174    -2.341    -0.835    -0.781  0.9173  0.3964 -0.0368
              Bcc     0.0376     5.051     1.802     1.685  0.0737 -0.0782  0.9942
 
              Baa    -0.0117    -1.569    -0.560    -0.523  0.0757 -0.0805  0.9939
     9 C(13)  Bbb     0.0048     0.646     0.231     0.216 -0.1840  0.9785  0.0933
              Bcc     0.0069     0.923     0.329     0.308  0.9800  0.1899 -0.0592
 
              Baa    -0.0243    -3.264    -1.165    -1.089 -0.3746  0.9211  0.1060
    10 C(13)  Bbb    -0.0219    -2.935    -1.047    -0.979  0.9244  0.3799 -0.0348
              Bcc     0.0462     6.198     2.212     2.068  0.0724 -0.0849  0.9938
 
              Baa    -0.0158    -2.117    -0.755    -0.706  0.0702 -0.0823  0.9941
    11 C(13)  Bbb     0.0060     0.804     0.287     0.268 -0.5191  0.8480  0.1068
              Bcc     0.0098     1.312     0.468     0.438  0.8518  0.5236 -0.0168
 
              Baa    -0.0400    -1.542    -0.550    -0.514  0.2078  0.9769  0.0503
    12 N(14)  Bbb    -0.0397    -1.531    -0.546    -0.511  0.9747 -0.2025 -0.0944
              Bcc     0.0797     3.073     1.096     1.025  0.0821 -0.0687  0.9943
 
              Baa    -0.0603    -2.324    -0.829    -0.775  0.0150  0.9991 -0.0393
    13 N(14)  Bbb    -0.0497    -1.916    -0.684    -0.639  0.9999 -0.0151 -0.0042
              Bcc     0.1099     4.240     1.513     1.414  0.0048  0.0392  0.9992
 
              Baa    -0.1063   -14.259    -5.088    -4.756  0.0232  0.0184  0.9996
    14 C(13)  Bbb     0.0463     6.212     2.217     2.072  0.8064 -0.5913 -0.0078
              Bcc     0.0600     8.047     2.871     2.684  0.5909  0.8062 -0.0286
 
              Baa    -0.2270   -30.464   -10.870   -10.162 -0.0033  1.0000  0.0009
    15 C(13)  Bbb    -0.2230   -29.923   -10.677    -9.981  0.9993  0.0033 -0.0375
              Bcc     0.4500    60.387    21.548    20.143  0.0375 -0.0007  0.9993
 
              Baa    -0.1063   -14.269    -5.091    -4.760  0.0257 -0.0188  0.9995
    16 C(13)  Bbb     0.0463     6.213     2.217     2.073  0.7970  0.6039 -0.0091
              Bcc     0.0600     8.055     2.874     2.687 -0.6035  0.7968  0.0304
 
              Baa    -0.0779   -10.449    -3.728    -3.485  0.9910 -0.1321 -0.0209
    17 C(13)  Bbb    -0.0766   -10.278    -3.667    -3.428  0.1327  0.9906  0.0321
              Bcc     0.1545    20.727     7.396     6.914  0.0165 -0.0346  0.9993
 
              Baa    -0.0016    -0.214    -0.076    -0.071  0.7752 -0.6301 -0.0450
    18 C(13)  Bbb     0.0000     0.000     0.000     0.000  0.0450 -0.0160  0.9989
              Bcc     0.0016     0.213     0.076     0.071  0.6301  0.7764 -0.0160
 
              Baa    -0.0694    -9.318    -3.325    -3.108  0.0034 -0.0403  0.9992
    19 C(13)  Bbb     0.0335     4.501     1.606     1.501  0.1297  0.9908  0.0395
              Bcc     0.0359     4.817     1.719     1.607  0.9916 -0.1294 -0.0086
 
              Baa    -0.0955   -12.812    -4.572    -4.274  0.5018  0.8650  0.0060
    20 C(13)  Bbb    -0.0922   -12.373    -4.415    -4.127  0.8645 -0.5013 -0.0365
              Bcc     0.1877    25.185     8.987     8.401  0.0286 -0.0235  0.9993
 
              Baa    -0.0647    -8.687    -3.100    -2.898  0.0598  0.0706  0.9957
    21 C(13)  Bbb     0.0265     3.554     1.268     1.185  0.5763  0.8120 -0.0922
              Bcc     0.0383     5.133     1.832     1.712  0.8150 -0.5793 -0.0079
 
              Baa    -0.0854   -11.458    -4.088    -3.822 -0.1413  0.9866 -0.0813
    22 C(13)  Bbb    -0.0800   -10.740    -3.832    -3.583  0.9879  0.1352 -0.0761
              Bcc     0.1654    22.198     7.921     7.404  0.0641  0.0911  0.9938
 
              Baa    -0.0222    -2.980    -1.063    -0.994  0.0555  0.0842  0.9949
    23 C(13)  Bbb     0.0087     1.163     0.415     0.388  0.3064  0.9469 -0.0972
              Bcc     0.0135     1.818     0.649     0.606  0.9503 -0.3102 -0.0268
 
              Baa    -0.0411    -1.587    -0.566    -0.529  0.5155  0.8503 -0.1064
    24 N(14)  Bbb    -0.0396    -1.529    -0.545    -0.510  0.8534 -0.5206 -0.0261
              Bcc     0.0808     3.115     1.112     1.039  0.0776  0.0773  0.9940
 
              Baa    -0.0176    -2.366    -0.844    -0.789  0.0724  0.0794  0.9942
    25 C(13)  Bbb     0.0069     0.929     0.331     0.310  0.1205  0.9888 -0.0877
              Bcc     0.0107     1.438     0.513     0.480  0.9901 -0.1261 -0.0620
 
              Baa    -0.0244    -3.276    -1.169    -1.093  0.3037  0.9476 -0.0994
    26 C(13)  Bbb    -0.0220    -2.948    -1.052    -0.983  0.9501 -0.3091 -0.0433
              Bcc     0.0464     6.223     2.221     2.076  0.0718  0.0813  0.9941
 
              Baa    -0.0130    -1.738    -0.620    -0.580  0.0785  0.0753  0.9941
    27 C(13)  Bbb     0.0054     0.726     0.259     0.242  0.5119  0.8526 -0.1049
              Bcc     0.0075     1.012     0.361     0.338  0.8555 -0.5171 -0.0284
 
              Baa    -0.0199    -2.675    -0.954    -0.892  0.3324  0.9386 -0.0928
    28 C(13)  Bbb    -0.0182    -2.442    -0.872    -0.815  0.9400 -0.3377 -0.0492
              Bcc     0.0381     5.117     1.826     1.707  0.0776  0.0709  0.9945
 
              Baa    -0.0608    -2.345    -0.837    -0.782 -0.0293  0.9987  0.0413
    29 N(14)  Bbb    -0.0502    -1.938    -0.691    -0.646  0.9995  0.0296 -0.0068
              Bcc     0.1110     4.283     1.528     1.429  0.0081 -0.0411  0.9991
 
              Baa    -0.0024    -0.407    -0.145    -0.136  0.2381  0.0054  0.9712
    30 B(11)  Bbb     0.0008     0.143     0.051     0.048  0.9706 -0.0369 -0.2378
              Bcc     0.0015     0.264     0.094     0.088  0.0345  0.9993 -0.0140
 
              Baa    -0.0172    -8.645    -3.085    -2.884 -0.0101  0.9999  0.0075
    31 F(19)  Bbb    -0.0149    -7.489    -2.672    -2.498 -0.4534 -0.0112  0.8912
              Bcc     0.0321    16.134     5.757     5.382  0.8913  0.0056  0.4535
 
              Baa    -0.0091    -4.569    -1.630    -1.524  0.2349 -0.0034  0.9720
    32 F(19)  Bbb    -0.0065    -3.288    -1.173    -1.097 -0.0117  0.9999  0.0063
              Bcc     0.0156     7.856     2.803     2.621  0.9719  0.0128 -0.2349
 
              Baa    -0.0055    -0.737    -0.263    -0.246 -0.0072  0.9999 -0.0087
    33 C(13)  Bbb     0.0019     0.250     0.089     0.083  1.0000  0.0071 -0.0033
              Bcc     0.0036     0.488     0.174     0.163  0.0033  0.0087  1.0000
 
              Baa    -0.0084    -1.127    -0.402    -0.376  0.6278 -0.0036  0.7783
    34 C(13)  Bbb    -0.0069    -0.925    -0.330    -0.309  0.0077  1.0000 -0.0015
              Bcc     0.0153     2.052     0.732     0.684  0.7783 -0.0070 -0.6278
 
              Baa    -0.0031    -0.419    -0.150    -0.140 -0.0094  0.9999 -0.0053
    35 C(13)  Bbb    -0.0016    -0.218    -0.078    -0.073  0.2282  0.0073  0.9736
              Bcc     0.0047     0.637     0.227     0.212  0.9736  0.0080 -0.2282
 
              Baa    -0.0010    -0.138    -0.049    -0.046  0.0407  0.0150  0.9991
    36 C(13)  Bbb    -0.0004    -0.050    -0.018    -0.017 -0.0084  0.9999 -0.0147
              Bcc     0.0014     0.188     0.067     0.063  0.9991  0.0078 -0.0408
 
              Baa    -0.0031    -0.411    -0.147    -0.137 -0.0069  1.0000 -0.0059
    37 C(13)  Bbb    -0.0016    -0.210    -0.075    -0.070 -0.1570  0.0047  0.9876
              Bcc     0.0046     0.621     0.222     0.207  0.9876  0.0077  0.1569
 
              Baa    -0.0082    -1.105    -0.394    -0.369 -0.5599 -0.0123  0.8285
    38 C(13)  Bbb    -0.0067    -0.903    -0.322    -0.301 -0.0229  0.9997 -0.0006
              Bcc     0.0150     2.008     0.717     0.670  0.8282  0.0194  0.5600
 
              Baa    -0.0005    -0.019    -0.007    -0.006 -0.0070  0.9992 -0.0387
    39 N(14)  Bbb    -0.0003    -0.011    -0.004    -0.004  0.0868  0.0391  0.9955
              Bcc     0.0008     0.030     0.011     0.010  0.9962  0.0036 -0.0871
 
              Baa    -0.0003    -0.013    -0.005    -0.004 -0.0986 -0.0028  0.9951
    40 N(14)  Bbb    -0.0002    -0.009    -0.003    -0.003  0.0018  1.0000  0.0030
              Bcc     0.0006     0.023     0.008     0.008  0.9951 -0.0021  0.0986
 
              Baa    -0.0003    -0.013    -0.005    -0.004 -0.1855  0.0137  0.9826
    41 N(14)  Bbb     0.0000     0.002     0.001     0.001 -0.0107  0.9998 -0.0160
              Bcc     0.0003     0.011     0.004     0.004  0.9826  0.0135  0.1853
 
              Baa    -0.0023    -1.216    -0.434    -0.406 -0.3792 -0.0096  0.9253
    42 H(1)   Bbb    -0.0007    -0.395    -0.141    -0.132  0.4393  0.8782  0.1891
              Bcc     0.0030     1.611     0.575     0.537  0.8144 -0.4782  0.3288
 
              Baa    -0.0023    -1.219    -0.435    -0.407  0.3926  0.0275  0.9193
    43 H(1)   Bbb    -0.0007    -0.379    -0.135    -0.127  0.4363  0.8744 -0.2125
              Bcc     0.0030     1.599     0.571     0.533  0.8097 -0.4845 -0.3312
 
              Baa    -0.0015    -0.808    -0.288    -0.270  0.8133  0.5695  0.1190
    44 H(1)   Bbb    -0.0015    -0.781    -0.279    -0.260 -0.1009 -0.0634  0.9929
              Bcc     0.0030     1.589     0.567     0.530 -0.5730  0.8195 -0.0059
 
              Baa    -0.0026    -1.412    -0.504    -0.471 -0.0053 -0.1438  0.9896
    45 H(1)   Bbb    -0.0023    -1.243    -0.443    -0.414  0.0985  0.9847  0.1436
              Bcc     0.0050     2.655     0.947     0.885  0.9951 -0.0983 -0.0089
 
              Baa    -0.0032    -1.716    -0.612    -0.572  0.3698 -0.5633  0.7389
    46 H(1)   Bbb    -0.0029    -1.543    -0.551    -0.515 -0.3763  0.6363  0.6734
              Bcc     0.0061     3.259     1.163     1.087  0.8495  0.5271 -0.0234
 
              Baa    -0.0092    -4.916    -1.754    -1.640  0.7456  0.6664 -0.0010
    47 H(1)   Bbb    -0.0020    -1.052    -0.375    -0.351  0.0502 -0.0547  0.9972
              Bcc     0.0112     5.969     2.130     1.991 -0.6645  0.7436  0.0742
 
              Baa    -0.0014    -0.721    -0.257    -0.241  0.0876 -0.0677  0.9939
    48 H(1)   Bbb    -0.0009    -0.472    -0.169    -0.158  0.8062  0.5909 -0.0308
              Bcc     0.0022     1.194     0.426     0.398 -0.5852  0.8039  0.1063
 
              Baa    -0.0008    -0.432    -0.154    -0.144  0.0744 -0.0801  0.9940
    49 H(1)   Bbb    -0.0002    -0.117    -0.042    -0.039 -0.3035  0.9477  0.0991
              Bcc     0.0010     0.549     0.196     0.183  0.9499  0.3091 -0.0462
 
              Baa    -0.0035    -1.865    -0.666    -0.622 -0.2494  0.9631  0.1016
    50 H(1)   Bbb    -0.0003    -0.179    -0.064    -0.060  0.0741 -0.0856  0.9936
              Bcc     0.0038     2.044     0.729     0.682  0.9656  0.2553 -0.0501
 
              Baa    -0.0010    -0.521    -0.186    -0.174  0.0693 -0.0688  0.9952
    51 H(1)   Bbb    -0.0002    -0.131    -0.047    -0.044 -0.5829  0.8068  0.0964
              Bcc     0.0012     0.652     0.233     0.217  0.8096  0.5868 -0.0158
 
              Baa    -0.0023    -1.210    -0.432    -0.404 -0.3796  0.0035  0.9252
    52 H(1)   Bbb    -0.0007    -0.397    -0.142    -0.132 -0.4534  0.8710 -0.1893
              Bcc     0.0030     1.607     0.573     0.536  0.8064  0.4913  0.3290
 
              Baa    -0.0015    -0.806    -0.288    -0.269  0.8085 -0.5487  0.2128
    53 H(1)   Bbb    -0.0015    -0.779    -0.278    -0.260 -0.1781  0.1165  0.9771
              Bcc     0.0030     1.585     0.566     0.529  0.5609  0.8279  0.0036
 
              Baa    -0.0023    -1.220    -0.435    -0.407  0.3917 -0.0208  0.9198
    54 H(1)   Bbb    -0.0007    -0.375    -0.134    -0.125 -0.4514  0.8668  0.2118
              Bcc     0.0030     1.595     0.569     0.532  0.8017  0.4982 -0.3302
 
              Baa    -0.0026    -1.413    -0.504    -0.471 -0.0077  0.1579  0.9874
    55 H(1)   Bbb    -0.0023    -1.244    -0.444    -0.415 -0.1101  0.9813 -0.1577
              Bcc     0.0050     2.656     0.948     0.886  0.9939  0.1099 -0.0099
 
              Baa    -0.0031    -1.678    -0.599    -0.560  0.3561  0.5915  0.7234
    56 H(1)   Bbb    -0.0029    -1.529    -0.545    -0.510 -0.3433 -0.6372  0.6900
              Bcc     0.0060     3.207     1.144     1.070  0.8691 -0.4940 -0.0239
 
              Baa    -0.0090    -4.805    -1.715    -1.603  0.7482 -0.6635  0.0036
    57 H(1)   Bbb    -0.0021    -1.120    -0.400    -0.374  0.0509  0.0628  0.9967
              Bcc     0.0111     5.925     2.114     1.976  0.6616  0.7455 -0.0807
 
              Baa    -0.0009    -0.495    -0.176    -0.165  0.0721  0.0716  0.9948
    58 H(1)   Bbb    -0.0003    -0.137    -0.049    -0.046  0.1180  0.9898 -0.0798
              Bcc     0.0012     0.632     0.225     0.211  0.9904 -0.1231 -0.0629
 
              Baa    -0.0035    -1.875    -0.669    -0.625  0.3556  0.9290 -0.1025
    59 H(1)   Bbb    -0.0003    -0.169    -0.060    -0.056  0.0728  0.0818  0.9940
              Bcc     0.0038     2.044     0.729     0.682  0.9318 -0.3609 -0.0385
 
              Baa    -0.0008    -0.451    -0.161    -0.150  0.0765  0.0717  0.9945
    60 H(1)   Bbb    -0.0003    -0.158    -0.056    -0.053  0.4843  0.8692 -0.0999
              Bcc     0.0011     0.609     0.217     0.203  0.8715 -0.4893 -0.0317
 
              Baa    -0.0016    -0.835    -0.298    -0.278  0.9852  0.1693  0.0272
    61 H(1)   Bbb    -0.0012    -0.658    -0.235    -0.219 -0.0325  0.0290  0.9990
              Bcc     0.0028     1.492     0.533     0.498 -0.1683  0.9851 -0.0341
 
              Baa    -0.0031    -1.667    -0.595    -0.556 -0.0135  0.9999 -0.0097
    62 H(1)   Bbb    -0.0019    -1.023    -0.365    -0.341  0.8330  0.0166  0.5530
              Bcc     0.0050     2.690     0.960     0.897 -0.5531  0.0007  0.8331
 
              Baa    -0.0007    -0.377    -0.135    -0.126 -0.0083  1.0000 -0.0048
    63 H(1)   Bbb    -0.0007    -0.350    -0.125    -0.117  0.4788  0.0082  0.8779
              Bcc     0.0014     0.727     0.259     0.242  0.8779  0.0050 -0.4788
 
              Baa    -0.0007    -0.375    -0.134    -0.125 -0.0092  1.0000 -0.0000
    64 H(1)   Bbb    -0.0007    -0.354    -0.126    -0.118 -0.4038 -0.0037  0.9148
              Bcc     0.0014     0.729     0.260     0.243  0.9148  0.0084  0.4039
 
              Baa    -0.0031    -1.630    -0.582    -0.544  0.0006  0.9999 -0.0122
    65 H(1)   Bbb    -0.0019    -1.038    -0.371    -0.346  0.7867 -0.0080 -0.6173
              Bcc     0.0050     2.668     0.952     0.890  0.6173  0.0093  0.7867
 

 ---------------------------------------------------------------------------------

 No NMR shielding tensors so no spin-rotation constants.
 Leave Link  601 at Thu Nov  6 13:29:45 2025, MaxMem= 30870077440 cpu:             158.6 elap:               2.8
 (Enter /public/software/gauss/g16/l9999.exe)
 1\1\GINC-CU015\SP\UM062X\def2TZVPP\C31H24B1F2N7(1-,2)\BAIDING\06-Nov-2
 025\0\\#p M062X/DEF2TZVPP scrf=(solvent=water) em=GD3\\Energy calculat
 ion for M100033512_reduced\\-1,2\C,0,3.318002,-3.110624,0.065722\C,0,1
 .909251,-2.590093,0.060914\C,0,0.776607,-3.395972,0.020102\C,0,-0.3733
 34,-2.578465,0.010278\C,0,-1.751284,-2.954211,-0.043408\C,0,-2.225788,
 -4.2325,0.017186\C,0,-3.629945,-4.599102,-0.058358\C,0,-4.000822,-5.95
 9194,0.02665\C,0,-5.341506,-6.313781,-0.043177\C,0,-6.299349,-5.308029
 ,-0.196574\C,0,-5.849873,-3.989241,-0.272151\N,0,-4.565146,-3.623328,-
 0.208383\N,0,0.051785,-1.257253,0.040524\C,0,1.441727,-1.232698,0.0789
 4\C,0,2.143345,-0.000722,0.11089\C,0,1.424051,1.221067,0.076456\C,0,1.
 871625,2.584991,0.059\C,0,3.27248,3.126349,0.066153\C,0,0.727406,3.374
 464,0.016098\C,0,-0.409954,2.540045,0.004167\C,0,-1.794298,2.895501,-0
 .052456\C,0,-2.279589,4.16971,0.016988\C,0,-3.676833,4.563475,-0.05608
 4\N,0,-3.913324,5.901163,0.034299\C,0,-5.182493,6.32503,-0.024605\C,0,
 -6.28479,5.486573,-0.172266\C,0,-6.046068,4.111404,-0.264436\C,0,-4.74
 1127,3.645353,-0.206928\N,0,0.033916,1.225221,0.035637\B,0,-0.847305,-
 0.022376,0.227556\F,0,-1.440029,-0.023587,1.511612\F,0,-1.896275,-0.03
 0923,-0.72536\C,0,3.636422,0.010112,0.169533\C,0,4.309905,0.010087,1.4
 00868\C,0,5.701341,0.020143,1.462618\C,0,6.448722,0.030227,0.280266\C,
 0,5.798647,0.030576,-0.95994\C,0,4.405944,0.020548,-1.003998\N,0,7.864
 422,0.039612,0.436062\N,0,8.57081,0.047125,-0.577932\N,0,9.337644,0.05
 4608,-1.422959\H,0,3.891275,-2.775999,-0.805336\H,0,3.878528,-2.794267
 ,0.951629\H,0,3.304045,-4.204658,0.054053\H,0,0.77491,-4.477811,-0.019
 953\H,0,-2.472305,-2.151877,-0.151615\H,0,-1.532431,-5.062791,0.130952
 \H,0,-3.231018,-6.715502,0.146107\H,0,-5.637242,-7.356927,0.020931\H,0
 ,-7.358791,-5.532585,-0.256322\H,0,-6.569504,-3.180901,-0.391897\H,0,3
 .849981,2.806,-0.807508\H,0,3.242215,4.2201,0.061472\H,0,3.838307,2.81
 2626,0.949583\H,0,0.709992,4.456063,-0.024925\H,0,-2.488,2.070263,-0.1
 73146\H,0,-1.590147,5.001578,0.139885\H,0,-5.327623,7.401285,0.051111\
 H,0,-7.288599,5.895359,-0.213013\H,0,-6.869955,3.41305,-0.379748\H,0,-
 4.541013,2.581844,-0.276228\H,0,3.73734,0.002269,2.323261\H,0,6.215349
 ,0.020091,2.418101\H,0,6.368716,0.038319,-1.884054\H,0,3.907945,0.0207
 58,-1.968813\\Version=ES64L-G16RevA.03\State=2-A\HF=-1803.794029\S2=0.
 803232\S2-1=0.\S2A=0.752103\RMSD=5.731e-09\Dipole=1.559231,-1.8568588,
 -0.5432202\Quadrupole=3.8335582,-2.2564612,-1.577097,7.899395,2.252476
 3,-1.4803302\PG=C01 [X(C31H24B1F2N7)]\\@


 FRICTION IS A DRAG,
 AND ENTROPY AIN'T WHAT IT USED TO BE.
 Job cpu time:       0 days 23 hours 16 minutes  3.8 seconds.
 Elapsed time:       0 days  0 hours 22 minutes  7.5 seconds.
 File lengths (MBytes):  RWF=   2788 Int=      0 D2E=      0 Chk=    181 Scr=      1
 Normal termination of Gaussian 16 at Thu Nov  6 13:29:46 2025.
