 Entering Gaussian System, Link 0=g16
 Input=M100034928_reduced_sp.gjf
 Output=M100034928_reduced_sp.log
 Initial command:
 /work/home/accqbws0vm/apprepo/gaussian/16-hy/scripts/../app/g16/l1.exe "/work/home/accqbws0vm/1012_third_energy/tmp_M100034928_reduced_sp_25977247/Gau-59080.inp" -scrdir="/work/home/accqbws0vm/1012_third_energy/tmp_M100034928_reduced_sp_25977247/"
 Entering Link 1 = /work/home/accqbws0vm/apprepo/gaussian/16-hy/scripts/../app/g16/l1.exe PID=     59081.
  
 Copyright (c) 1988,1990,1992,1993,1995,1998,2003,2009,2016,
            Gaussian, Inc.  All Rights Reserved.
  
 This is part of the Gaussian(R) 16 program.  It is based on
 the Gaussian(R) 09 system (copyright 2009, Gaussian, Inc.),
 the Gaussian(R) 03 system (copyright 2003, Gaussian, Inc.),
 the Gaussian(R) 98 system (copyright 1998, Gaussian, Inc.),
 the Gaussian(R) 94 system (copyright 1995, Gaussian, Inc.),
 the Gaussian 92(TM) system (copyright 1992, Gaussian, Inc.),
 the Gaussian 90(TM) system (copyright 1990, Gaussian, Inc.),
 the Gaussian 88(TM) system (copyright 1988, Gaussian, Inc.),
 the Gaussian 86(TM) system (copyright 1986, Carnegie Mellon
 University), and the Gaussian 82(TM) system (copyright 1983,
 Carnegie Mellon University). Gaussian is a federally registered
 trademark of Gaussian, Inc.
  
 This software contains proprietary and confidential information,
 including trade secrets, belonging to Gaussian, Inc.
  
 This software is provided under written license and may be
 used, copied, transmitted, or stored only in accord with that
 written license.
  
 The following legend is applicable only to US Government
 contracts under FAR:
  
                    RESTRICTED RIGHTS LEGEND
  
 Use, reproduction and disclosure by the US Government is
 subject to restrictions as set forth in subparagraphs (a)
 and (c) of the Commercial Computer Software - Restricted
 Rights clause in FAR 52.227-19.
  
 Gaussian, Inc.
 340 Quinnipiac St., Bldg. 40, Wallingford CT 06492
  
  
 ---------------------------------------------------------------
 Warning -- This program may not be used in any manner that
 competes with the business of Gaussian, Inc. or will provide
 assistance to any competitor of Gaussian, Inc.  The licensee
 of this program is prohibited from giving any competitor of
 Gaussian, Inc. access to this program.  By using this program,
 the user acknowledges that Gaussian, Inc. is engaged in the
 business of creating and licensing software in the field of
 computational chemistry and represents and warrants to the
 licensee that it is not a competitor of Gaussian, Inc. and that
 it will not use this program in any manner prohibited above.
 ---------------------------------------------------------------
  

 Cite this work as:
 Gaussian 16, Revision A.03,
 M. J. Frisch, G. W. Trucks, H. B. Schlegel, G. E. Scuseria, 
 M. A. Robb, J. R. Cheeseman, G. Scalmani, V. Barone, 
 G. A. Petersson, H. Nakatsuji, X. Li, M. Caricato, A. V. Marenich, 
 J. Bloino, B. G. Janesko, R. Gomperts, B. Mennucci, H. P. Hratchian, 
 J. V. Ortiz, A. F. Izmaylov, J. L. Sonnenberg, D. Williams-Young, 
 F. Ding, F. Lipparini, F. Egidi, J. Goings, B. Peng, A. Petrone, 
 T. Henderson, D. Ranasinghe, V. G. Zakrzewski, J. Gao, N. Rega, 
 G. Zheng, W. Liang, M. Hada, M. Ehara, K. Toyota, R. Fukuda, 
 J. Hasegawa, M. Ishida, T. Nakajima, Y. Honda, O. Kitao, H. Nakai, 
 T. Vreven, K. Throssell, J. A. Montgomery, Jr., J. E. Peralta, 
 F. Ogliaro, M. J. Bearpark, J. J. Heyd, E. N. Brothers, K. N. Kudin, 
 V. N. Staroverov, T. A. Keith, R. Kobayashi, J. Normand, 
 K. Raghavachari, A. P. Rendell, J. C. Burant, S. S. Iyengar, 
 J. Tomasi, M. Cossi, J. M. Millam, M. Klene, C. Adamo, R. Cammi, 
 J. W. Ochterski, R. L. Martin, K. Morokuma, O. Farkas, 
 J. B. Foresman, and D. J. Fox, Gaussian, Inc., Wallingford CT, 2016.
 
 ******************************************
 Gaussian 16:  ES64L-G16RevA.03 25-Dec-2016
                12-Oct-2025 
 ******************************************
 %nprocshared=64
 Will use up to   64 processors via shared memory.
 %mem=230GB
 %chk=M100034928_reduced_sp.chk
 ----------------------------------------------
 #p M062X/DEF2TZVPP scrf=(solvent=water) em=GD3
 ----------------------------------------------
 1/38=1,172=1/1;
 2/12=2,17=6,18=5,40=1/2;
 3/5=44,7=202,11=2,25=1,30=1,70=2201,72=1,74=-55,124=31/1,2,3;
 4//1;
 5/5=2,38=5,53=1/2;
 6/7=2,8=2,9=2,10=2,28=1/1;
 99/5=1,9=1/99;
 Leave Link    1 at Sun Oct 12 08:29:00 2025, MaxMem= 30870077440 cpu:               6.0 elap:               0.1
 (Enter /work/home/accqbws0vm/apprepo/gaussian/16-hy/scripts/../app/g16/l101.exe)
 -----------------------------------------
 Energy calculation for M100034928_reduced
 -----------------------------------------
 Symbolic Z-matrix:
 Charge = -1 Multiplicity = 2
 C                     6.16      6.61767  -0.75452 
 O                     6.84175   5.4198   -0.35717 
 C                     6.12486   4.27352  -0.25958 
 C                     6.86776   3.12003   0.11817 
 O                     8.19863   3.31421   0.33468 
 C                     8.98055   2.17749   0.71824 
 C                     6.21035   1.91062   0.20988 
 C                     4.82851   1.80871  -0.05676 
 N                     4.33133   0.45446  -0.06937 
 O                     4.93896  -0.41051   0.59104 
 O                     3.34733   0.16762  -0.77028 
 C                     4.03808   2.94887  -0.36971 
 C                     2.59086   3.10944  -0.49864 
 C                     1.58803   2.30011  -0.06233 
 C                     0.17571   2.57007  -0.08771 
 C                    -0.59128   3.76283  -0.08971 
 I                     0.14955   5.72328  -0.02815 
 C                    -1.95418   3.44901  -0.02212 
 C                    -3.07514   4.43638   0.10158 
 C                    -2.02221   2.01796  -0.0266 
 C                    -3.13675   1.13403   0.00329 
 C                    -4.51602   1.68008  -0.04284 
 C                    -5.00833   2.29272  -1.21165 
 C                    -6.29907   2.80158  -1.26315 
 C                    -7.10387   2.70799  -0.12359 
 N                    -8.45113   3.24219  -0.16609 
 O                    -8.84667   3.77415  -1.21359 
 O                    -9.15971   3.14779   0.84672 
 C                    -6.64486   2.11353   1.0559 
 C                    -5.35632   1.59804   1.08484 
 C                    -2.92705  -0.27067   0.08086 
 C                    -3.85264  -1.3647    0.04651 
 C                    -5.34297  -1.32504  -0.10795 
 C                    -3.07423  -2.52315   0.14493 
 I                    -3.89396  -4.44743   0.29045 
 C                    -1.69982  -2.17519   0.20614 
 C                    -0.4816   -2.92675   0.29307 
 C                    -0.29225  -4.2671    0.13956 
 C                     0.97761  -4.98548   0.13593 
 C                     0.97196  -6.19589  -0.60293 
 C                     2.11321  -6.94471  -0.84989 
 O                     2.14686  -8.10386  -1.5526 
 C                     0.9117   -8.6271   -2.06003 
 C                     3.37101  -6.49266  -0.36016 
 O                     4.44319  -7.27816  -0.6612 
 C                     5.72563  -6.86194  -0.17895 
 C                     3.41396  -5.33495   0.39075 
 C                     2.23856  -4.60747   0.66801 
 N                     2.42068  -3.52177   1.60463 
 O                     3.53351  -2.96698   1.65836 
 O                     1.49292  -3.20555   2.36657 
 N                    -1.64464  -0.78891   0.16729 
 B                    -0.34811   0.02732  -0.02343 
 F                     0.29129  -0.3286   -1.2249 
 F                     0.54043  -0.23781   1.04791 
 N                    -0.72818   1.52171  -0.02921 
 C                     4.7608    4.16524  -0.48436 
 H                     5.38826   6.88977  -0.02746 
 H                     6.9253    7.39359  -0.78406 
 H                     5.71224   6.50349  -1.74681 
 H                     8.61667   1.74714   1.65746 
 H                     8.97418   1.41133  -0.06469 
 H                     9.99604   2.55009   0.85576 
 H                     6.75049   1.00625   0.44883 
 H                     2.32069   4.065    -0.93473 
 H                     1.83451   1.33138   0.34684 
 H                    -3.8414    4.09332   0.79986 
 H                    -2.69289   5.39259   0.46719 
 H                    -3.57139   4.62845  -0.85676 
 H                    -4.37408   2.35484  -2.08948 
 H                    -6.68524   3.25802  -2.16568 
 H                    -7.28629   2.0656    1.92669 
 H                    -4.98529   1.1376    1.99424 
 H                    -5.85786  -1.11471   0.83656 
 H                    -5.65493  -0.5617   -0.82375 
 H                    -5.70631  -2.29032  -0.46901 
 H                     0.38424  -2.31089   0.48613 
 H                    -1.13617  -4.89197  -0.12917 
 H                     0.02754  -6.51958  -1.02227 
 H                     0.20792  -8.83081  -1.24671 
 H                     0.45868  -7.9371   -2.77909 
 H                     1.17278  -9.55907  -2.56191 
 H                     5.7463   -6.83548   0.916 
 H                     6.43358  -7.60887  -0.53937 
 H                     5.99642  -5.87764  -0.57607 
 H                     4.34365  -4.9873    0.81761 
 H                     4.19731   5.05753  -0.72586 
 
 ITRead=  0  0  0  0  0  0  0  0  0  0  0  0  0  0  0  0  0  0  0  0
 ITRead=  0  0  0  0  0  0  0  0  0  0  0  0  0  0  0  0  0  0  0  0
 ITRead=  0  0  0  0  0  0  0  0  0  0  0  0  0  0  0  0  0  0  0  0
 ITRead=  0  0  0  0  0  0  0  0  0  0  0  0  0  0  0  0  0  0  0  0
 ITRead=  0  0  0  0  0  0  0
 MicOpt= -1 -1 -1 -1 -1 -1 -1 -1 -1 -1 -1 -1 -1 -1 -1 -1 -1 -1 -1 -1
 MicOpt= -1 -1 -1 -1 -1 -1 -1 -1 -1 -1 -1 -1 -1 -1 -1 -1 -1 -1 -1 -1
 MicOpt= -1 -1 -1 -1 -1 -1 -1 -1 -1 -1 -1 -1 -1 -1 -1 -1 -1 -1 -1 -1
 MicOpt= -1 -1 -1 -1 -1 -1 -1 -1 -1 -1 -1 -1 -1 -1 -1 -1 -1 -1 -1 -1
 MicOpt= -1 -1 -1 -1 -1 -1 -1
 NAtoms=     87 NQM=       87 NQMF=       0 NMMI=      0 NMMIF=      0
                NMic=       0 NMicF=      0.
                    Isotopes and Nuclear Properties:
 (Nuclear quadrupole moments (NQMom) in fm**2, nuclear magnetic moments (NMagM)
  in nuclear magnetons)

  Atom         1           2           3           4           5           6           7           8           9          10
 IAtWgt=          12          16          12          12          16          12          12          12          14          16
 AtmWgt=  12.0000000  15.9949146  12.0000000  12.0000000  15.9949146  12.0000000  12.0000000  12.0000000  14.0030740  15.9949146
 NucSpn=           0           0           0           0           0           0           0           0           2           0
 AtZEff=  -0.0000000  -0.0000000  -0.0000000  -0.0000000  -0.0000000  -0.0000000  -0.0000000  -0.0000000  -0.0000000  -0.0000000
 NQMom=    0.0000000   0.0000000   0.0000000   0.0000000   0.0000000   0.0000000   0.0000000   0.0000000   2.0440000   0.0000000
 NMagM=    0.0000000   0.0000000   0.0000000   0.0000000   0.0000000   0.0000000   0.0000000   0.0000000   0.4037610   0.0000000
 AtZNuc=   6.0000000   8.0000000   6.0000000   6.0000000   8.0000000   6.0000000   6.0000000   6.0000000   7.0000000   8.0000000

  Atom        11          12          13          14          15          16          17          18          19          20
 IAtWgt=          16          12          12          12          12          12         127          12          12          12
 AtmWgt=  15.9949146  12.0000000  12.0000000  12.0000000  12.0000000  12.0000000 126.9004000  12.0000000  12.0000000  12.0000000
 NucSpn=           0           0           0           0           0           0           5           0           0           0
 AtZEff=  -0.0000000  -0.0000000  -0.0000000  -0.0000000  -0.0000000  -0.0000000  -0.0000000  -0.0000000  -0.0000000  -0.0000000
 NQMom=    0.0000000   0.0000000   0.0000000   0.0000000   0.0000000   0.0000000 -71.0000000   0.0000000   0.0000000   0.0000000
 NMagM=    0.0000000   0.0000000   0.0000000   0.0000000   0.0000000   0.0000000   2.8132800   0.0000000   0.0000000   0.0000000
 AtZNuc=   8.0000000   6.0000000   6.0000000   6.0000000   6.0000000   6.0000000  53.0000000   6.0000000   6.0000000   6.0000000

  Atom        21          22          23          24          25          26          27          28          29          30
 IAtWgt=          12          12          12          12          12          14          16          16          12          12
 AtmWgt=  12.0000000  12.0000000  12.0000000  12.0000000  12.0000000  14.0030740  15.9949146  15.9949146  12.0000000  12.0000000
 NucSpn=           0           0           0           0           0           2           0           0           0           0
 AtZEff=  -0.0000000  -0.0000000  -0.0000000  -0.0000000  -0.0000000  -0.0000000  -0.0000000  -0.0000000  -0.0000000  -0.0000000
 NQMom=    0.0000000   0.0000000   0.0000000   0.0000000   0.0000000   2.0440000   0.0000000   0.0000000   0.0000000   0.0000000
 NMagM=    0.0000000   0.0000000   0.0000000   0.0000000   0.0000000   0.4037610   0.0000000   0.0000000   0.0000000   0.0000000
 AtZNuc=   6.0000000   6.0000000   6.0000000   6.0000000   6.0000000   7.0000000   8.0000000   8.0000000   6.0000000   6.0000000

  Atom        31          32          33          34          35          36          37          38          39          40
 IAtWgt=          12          12          12          12         127          12          12          12          12          12
 AtmWgt=  12.0000000  12.0000000  12.0000000  12.0000000 126.9004000  12.0000000  12.0000000  12.0000000  12.0000000  12.0000000
 NucSpn=           0           0           0           0           5           0           0           0           0           0
 AtZEff=  -0.0000000  -0.0000000  -0.0000000  -0.0000000  -0.0000000  -0.0000000  -0.0000000  -0.0000000  -0.0000000  -0.0000000
 NQMom=    0.0000000   0.0000000   0.0000000   0.0000000 -71.0000000   0.0000000   0.0000000   0.0000000   0.0000000   0.0000000
 NMagM=    0.0000000   0.0000000   0.0000000   0.0000000   2.8132800   0.0000000   0.0000000   0.0000000   0.0000000   0.0000000
 AtZNuc=   6.0000000   6.0000000   6.0000000   6.0000000  53.0000000   6.0000000   6.0000000   6.0000000   6.0000000   6.0000000

  Atom        41          42          43          44          45          46          47          48          49          50
 IAtWgt=          12          16          12          12          16          12          12          12          14          16
 AtmWgt=  12.0000000  15.9949146  12.0000000  12.0000000  15.9949146  12.0000000  12.0000000  12.0000000  14.0030740  15.9949146
 NucSpn=           0           0           0           0           0           0           0           0           2           0
 AtZEff=  -0.0000000  -0.0000000  -0.0000000  -0.0000000  -0.0000000  -0.0000000  -0.0000000  -0.0000000  -0.0000000  -0.0000000
 NQMom=    0.0000000   0.0000000   0.0000000   0.0000000   0.0000000   0.0000000   0.0000000   0.0000000   2.0440000   0.0000000
 NMagM=    0.0000000   0.0000000   0.0000000   0.0000000   0.0000000   0.0000000   0.0000000   0.0000000   0.4037610   0.0000000
 AtZNuc=   6.0000000   8.0000000   6.0000000   6.0000000   8.0000000   6.0000000   6.0000000   6.0000000   7.0000000   8.0000000

  Atom        51          52          53          54          55          56          57          58          59          60
 IAtWgt=          16          14          11          19          19          14          12           1           1           1
 AtmWgt=  15.9949146  14.0030740  11.0093053  18.9984032  18.9984032  14.0030740  12.0000000   1.0078250   1.0078250   1.0078250
 NucSpn=           0           2           3           1           1           2           0           1           1           1
 AtZEff=  -0.0000000  -0.0000000  -0.0000000  -0.0000000  -0.0000000  -0.0000000  -0.0000000  -0.0000000  -0.0000000  -0.0000000
 NQMom=    0.0000000   2.0440000   4.0590000   0.0000000   0.0000000   2.0440000   0.0000000   0.0000000   0.0000000   0.0000000
 NMagM=    0.0000000   0.4037610   2.6886370   2.6288670   2.6288670   0.4037610   0.0000000   2.7928460   2.7928460   2.7928460
 AtZNuc=   8.0000000   7.0000000   5.0000000   9.0000000   9.0000000   7.0000000   6.0000000   1.0000000   1.0000000   1.0000000

  Atom        61          62          63          64          65          66          67          68          69          70
 IAtWgt=           1           1           1           1           1           1           1           1           1           1
 AtmWgt=   1.0078250   1.0078250   1.0078250   1.0078250   1.0078250   1.0078250   1.0078250   1.0078250   1.0078250   1.0078250
 NucSpn=           1           1           1           1           1           1           1           1           1           1
 AtZEff=  -0.0000000  -0.0000000  -0.0000000  -0.0000000  -0.0000000  -0.0000000  -0.0000000  -0.0000000  -0.0000000  -0.0000000
 NQMom=    0.0000000   0.0000000   0.0000000   0.0000000   0.0000000   0.0000000   0.0000000   0.0000000   0.0000000   0.0000000
 NMagM=    2.7928460   2.7928460   2.7928460   2.7928460   2.7928460   2.7928460   2.7928460   2.7928460   2.7928460   2.7928460
 AtZNuc=   1.0000000   1.0000000   1.0000000   1.0000000   1.0000000   1.0000000   1.0000000   1.0000000   1.0000000   1.0000000

  Atom        71          72          73          74          75          76          77          78          79          80
 IAtWgt=           1           1           1           1           1           1           1           1           1           1
 AtmWgt=   1.0078250   1.0078250   1.0078250   1.0078250   1.0078250   1.0078250   1.0078250   1.0078250   1.0078250   1.0078250
 NucSpn=           1           1           1           1           1           1           1           1           1           1
 AtZEff=  -0.0000000  -0.0000000  -0.0000000  -0.0000000  -0.0000000  -0.0000000  -0.0000000  -0.0000000  -0.0000000  -0.0000000
 NQMom=    0.0000000   0.0000000   0.0000000   0.0000000   0.0000000   0.0000000   0.0000000   0.0000000   0.0000000   0.0000000
 NMagM=    2.7928460   2.7928460   2.7928460   2.7928460   2.7928460   2.7928460   2.7928460   2.7928460   2.7928460   2.7928460
 AtZNuc=   1.0000000   1.0000000   1.0000000   1.0000000   1.0000000   1.0000000   1.0000000   1.0000000   1.0000000   1.0000000

  Atom        81          82          83          84          85          86          87
 IAtWgt=           1           1           1           1           1           1           1
 AtmWgt=   1.0078250   1.0078250   1.0078250   1.0078250   1.0078250   1.0078250   1.0078250
 NucSpn=           1           1           1           1           1           1           1
 AtZEff=  -0.0000000  -0.0000000  -0.0000000  -0.0000000  -0.0000000  -0.0000000  -0.0000000
 NQMom=    0.0000000   0.0000000   0.0000000   0.0000000   0.0000000   0.0000000   0.0000000
 NMagM=    2.7928460   2.7928460   2.7928460   2.7928460   2.7928460   2.7928460   2.7928460
 AtZNuc=   1.0000000   1.0000000   1.0000000   1.0000000   1.0000000   1.0000000   1.0000000
 Leave Link  101 at Sun Oct 12 08:29:00 2025, MaxMem= 30870077440 cpu:               3.8 elap:               0.1
 (Enter /work/home/accqbws0vm/apprepo/gaussian/16-hy/scripts/../app/g16/l202.exe)
 Stoichiometry    C37H30BF2I2N5O10(1-,2)
 Framework group  C1[X(C37H30BF2I2N5O10)]
 Deg. of freedom   255
 Full point group                 C1      NOp   1
 Largest Abelian subgroup         C1      NOp   1
 Largest concise Abelian subgroup C1      NOp   1
                         Standard orientation:                         
 ---------------------------------------------------------------------
 Center     Atomic      Atomic             Coordinates (Angstroms)
 Number     Number       Type             X           Y           Z
 ---------------------------------------------------------------------
      1          6           0       -6.160008   -6.617670   -0.754515
      2          8           0       -6.841751   -5.419800   -0.357171
      3          6           0       -6.124864   -4.273513   -0.259583
      4          6           0       -6.867761   -3.120027    0.118174
      5          8           0       -8.198628   -3.314204    0.334681
      6          6           0       -8.980552   -2.177491    0.718244
      7          6           0       -6.210349   -1.910616    0.209876
      8          6           0       -4.828508   -1.808703   -0.056763
      9          7           0       -4.331327   -0.454456   -0.069372
     10          8           0       -4.938964    0.410516    0.591038
     11          8           0       -3.347325   -0.167618   -0.770275
     12          6           0       -4.038083   -2.948865   -0.369711
     13          6           0       -2.590861   -3.109442   -0.498644
     14          6           0       -1.588028   -2.300110   -0.062329
     15          6           0       -0.175706   -2.570069   -0.087713
     16          6           0        0.591275   -3.762832   -0.089712
     17         53           0       -0.149547   -5.723281   -0.028146
     18          6           0        1.954175   -3.449013   -0.022119
     19          6           0        3.075136   -4.436377    0.101576
     20          6           0        2.022204   -2.017958   -0.026596
     21          6           0        3.136753   -1.134031    0.003294
     22          6           0        4.516022   -1.680082   -0.042836
     23          6           0        5.008330   -2.292717   -1.211648
     24          6           0        6.299069   -2.801586   -1.263145
     25          6           0        7.103869   -2.707991   -0.123593
     26          7           0        8.451130   -3.242196   -0.166088
     27          8           0        8.846671   -3.774151   -1.213586
     28          8           0        9.159710   -3.147789    0.846716
     29          6           0        6.644856   -2.113528    1.055898
     30          6           0        5.356318   -1.598043    1.084841
     31          6           0        2.927051    0.270671    0.080864
     32          6           0        3.852641    1.364696    0.046507
     33          6           0        5.342967    1.325042   -0.107947
     34          6           0        3.074232    2.523151    0.144928
     35         53           0        3.893958    4.447427    0.290445
     36          6           0        1.699823    2.175193    0.206138
     37          6           0        0.481597    2.926753    0.293071
     38          6           0        0.292250    4.267098    0.139559
     39          6           0       -0.977609    4.985476    0.135928
     40          6           0       -0.971960    6.195893   -0.602933
     41          6           0       -2.113202    6.944709   -0.849890
     42          8           0       -2.146857    8.103863   -1.552597
     43          6           0       -0.911696    8.627102   -2.060030
     44          6           0       -3.371011    6.492657   -0.360159
     45          8           0       -4.443190    7.278164   -0.661196
     46          6           0       -5.725627    6.861937   -0.178948
     47          6           0       -3.413953    5.334956    0.390747
     48          6           0       -2.238554    4.607468    0.668006
     49          7           0       -2.420676    3.521771    1.604625
     50          8           0       -3.533508    2.966980    1.658355
     51          8           0       -1.492923    3.205555    2.366574
     52          7           0        1.644638    0.788904    0.167294
     53          5           0        0.348109   -0.027321   -0.023427
     54          9           0       -0.291289    0.328595   -1.224901
     55          9           0       -0.540430    0.237811    1.047907
     56          7           0        0.728175   -1.521712   -0.029207
     57          6           0       -4.760797   -4.165238   -0.484356
     58          1           0       -5.388266   -6.889766   -0.027461
     59          1           0       -6.925300   -7.393583   -0.784055
     60          1           0       -5.712240   -6.503485   -1.746808
     61          1           0       -8.616668   -1.747138    1.657464
     62          1           0       -8.974178   -1.411325   -0.064689
     63          1           0       -9.996045   -2.550089    0.855758
     64          1           0       -6.750494   -1.006246    0.448827
     65          1           0       -2.320690   -4.064998   -0.934731
     66          1           0       -1.834509   -1.331376    0.346837
     67          1           0        3.841398   -4.093318    0.799862
     68          1           0        2.692886   -5.392587    0.467186
     69          1           0        3.571387   -4.628448   -0.856758
     70          1           0        4.374081   -2.354837   -2.089479
     71          1           0        6.685238   -3.258018   -2.165680
     72          1           0        7.286294   -2.065599    1.926694
     73          1           0        4.985293   -1.137598    1.994244
     74          1           0        5.857863    1.114709    0.836564
     75          1           0        5.654928    0.561701   -0.823745
     76          1           0        5.706310    2.290322   -0.469011
     77          1           0       -0.384240    2.310889    0.486128
     78          1           0        1.136174    4.891965   -0.129169
     79          1           0       -0.027536    6.519581   -1.022272
     80          1           0       -0.207918    8.830814   -1.246712
     81          1           0       -0.458675    7.937096   -2.779090
     82          1           0       -1.172777    9.559065   -2.561913
     83          1           0       -5.746294    6.835479    0.915998
     84          1           0       -6.433576    7.608869   -0.539372
     85          1           0       -5.996416    5.877641   -0.576071
     86          1           0       -4.343650    4.987299    0.817612
     87          1           0       -4.197311   -5.057529   -0.725858
 ---------------------------------------------------------------------
 Rotational constants (GHZ):           0.0278975           0.0267192           0.0140582
 Leave Link  202 at Sun Oct 12 08:29:00 2025, MaxMem= 30870077440 cpu:               3.2 elap:               0.1
 (Enter /work/home/accqbws0vm/apprepo/gaussian/16-hy/scripts/../app/g16/l301.exe)
 Standard basis: def2TZVPP (5D, 7F)
 Ernie: Thresh=  0.10000D-02 Tol=  0.10000D-05 Strict=F.
 There are  2548 symmetry adapted cartesian basis functions of A   symmetry.
 There are  2225 symmetry adapted basis functions of A   symmetry.
  2225 basis functions,  3533 primitive gaussians,  2548 cartesian basis functions
   221 alpha electrons      220 beta electrons
       nuclear repulsion energy      8714.2177934700 Hartrees.
 IExCor= 4336 DFT=T Ex+Corr=M062X ExCW=0 ScaHFX=  0.540000
 ScaDFX=  1.000000  1.000000  1.000000  1.000000 ScalE2=  1.000000  1.000000
 IRadAn=      5 IRanWt=     -1 IRanGd=            0 ICorTp=0 IEmpDi=131
 NAtoms=   87 NActive=   87 NUniq=   87 SFac= 1.00D+00 NAtFMM=   60 NAOKFM=T Big=T
 Integral buffers will be    131072 words long.
 Raffenetti 2 integral format.
 Two-electron integral symmetry is turned on.
 R6Disp:  Grimme-D3 Dispersion energy=       -0.0090515289 Hartrees.
 Nuclear repulsion after empirical dispersion term =     8714.2087419411 Hartrees.
 ------------------------------------------------------------------------------
 Polarizable Continuum Model (PCM)
 =================================
 Model                : PCM.
 Atomic radii         : UFF (Universal Force Field).
 Polarization charges : Total charges.
 Charge compensation  : None.
 Solution method      : On-the-fly selection.
 Cavity type          : Scaled VdW (van der Waals Surface) (Alpha=1.100).
 Cavity algorithm     : GePol (No added spheres)
                        Default sphere list used, NSphG=   87.
                        Lebedev-Laikov grids with approx.  5.0 points / Ang**2.
                        Smoothing algorithm: York/Karplus (Gamma=1.0000).
                        Polarization charges: spherical gaussians, with
                                              point-specific exponents (IZeta= 3).
                        Self-potential: point-specific (ISelfS= 7).
                        Self-field    : sphere-specific E.n sum rule (ISelfD= 2).
 Solvent              : Water, Eps=  78.355300 Eps(inf)=   1.777849
 ------------------------------------------------------------------------------
 GePol: Number of generator spheres                  =      87
 GePol: Total number of spheres                      =      87
 GePol: Number of exposed spheres                    =      87 (100.00%)
 GePol: Number of points                             =    6578
 GePol: Average weight of points                     =       0.13
 GePol: Minimum weight of points                     =   0.86D-10
 GePol: Maximum weight of points                     =    0.20577
 GePol: Number of points with low weight             =     430
 GePol: Fraction of low-weight points (<1% of avg)   =       6.54%
 GePol: Cavity surface area                          =    843.581 Ang**2
 GePol: Cavity volume                                =   1011.070 Ang**3
 Leave Link  301 at Sun Oct 12 08:29:00 2025, MaxMem= 30870077440 cpu:               9.2 elap:               0.2
 (Enter /work/home/accqbws0vm/apprepo/gaussian/16-hy/scripts/../app/g16/l302.exe)
 NPDir=0 NMtPBC=     1 NCelOv=     1 NCel=       1 NClECP=     1 NCelD=      1
         NCelK=      1 NCelE2=     1 NClLst=     1 CellRange=     0.0.
 One-electron integrals computed using PRISM.
 One-electron integral symmetry used in STVInt
   1 Symmetry operations used in ECPInt.
 ECPInt:  NShTT=  334153 NPrTT=  984873 LenC2=  194034 LenP2D=  373445.
 LDataN:  DoStor=T MaxTD1= 7 Len=  274
 Number of processors reduced to  43 by ecpmxn.
 NBasis=  2225 RedAO= T EigKep=  4.12D-06  NBF=  2225
 NBsUse=  2225 1.00D-06 EigRej= -1.00D+00 NBFU=  2225
 Precomputing XC quadrature grid using
 IXCGrd= 4 IRadAn=           5 IRanWt=          -1 IRanGd=           0 AccXCQ= 0.00D+00.
 Defaulting to unpruned grid for atomic number  53.
 Defaulting to unpruned grid for atomic number  53.
 Generated NRdTot=       0 NPtTot=           0 NUsed=           0 NTot=          32
 NSgBfM=  2216  2198  2201  2210  2216 MxSgAt=    87 MxSgA2=    87.
 Leave Link  302 at Sun Oct 12 08:29:15 2025, MaxMem= 30870077440 cpu:             939.3 elap:              15.0
 (Enter /work/home/accqbws0vm/apprepo/gaussian/16-hy/scripts/../app/g16/l303.exe)
 DipDrv:  MaxL=1.
 Leave Link  303 at Sun Oct 12 08:29:16 2025, MaxMem= 30870077440 cpu:              46.3 elap:               0.9
 (Enter /work/home/accqbws0vm/apprepo/gaussian/16-hy/scripts/../app/g16/l401.exe)
 ExpMin= 6.06D-02 ExpMax= 3.55D+04 ExpMxC= 1.21D+03 IAcc=3 IRadAn=         5 AccDes= 0.00D+00
 Harris functional with IExCor= 1009 and IRadAn=       5 diagonalized for initial guess.
 HarFok:  IExCor= 1009 AccDes= 0.00D+00 IRadAn=         5 IDoV= 1 UseB2=F ITyADJ=14
 ICtDFT=  3500011 ScaDFX=  1.000000  1.000000  1.000000  1.000000
 Defaulting to unpruned grid for atomic number  53.
 FoFCou: FMM=F IPFlag=           0 FMFlag=      100000 FMFlg1=        2001
         NFxFlg=           0 DoJE=T BraDBF=F KetDBF=T FulRan=T
         wScrn=  0.000000 ICntrl=       500 IOpCl=  0 I1Cent=   200000004 NGrid=           0
         NMat0=    1 NMatS0=      1 NMatT0=    0 NMatD0=    1 NMtDS0=    0 NMtDT0=    0
 Petite list used in FoFCou.
 Harris En= -3273.09416599313    
 JPrj=0 DoOrth=F DoCkMO=F.
 Initial guess <Sx>= 0.0000 <Sy>= 0.0000 <Sz>= 0.5000 <S**2>= 0.7500 S= 0.5000
 Leave Link  401 at Sun Oct 12 08:29:32 2025, MaxMem= 30870077440 cpu:             996.6 elap:              15.7
 (Enter /work/home/accqbws0vm/apprepo/gaussian/16-hy/scripts/../app/g16/l502.exe)
 Integral symmetry usage will be decided dynamically.
 UHF open shell SCF:
 Using DIIS extrapolation, IDIIS=  1040.
 NGot= 30870077440 LenX= 30856908561 LenY= 30850413709
 Requested convergence on RMS density matrix=1.00D-08 within 128 cycles.
 Requested convergence on MAX density matrix=1.00D-06.
 Requested convergence on             energy=1.00D-06.
 No special actions if energy rises.
 Fock matrices will be formed incrementally for  20 cycles.

 Cycle   1  Pass 1  IDiag  1:
 FoFJK:  IHMeth= 1 ICntrl=       0 DoSepK=F KAlg= 0 I1Cent=           0 FoldK=F
 IRaf= 530000000 NMat=       1 IRICut=       1 DoRegI=T DoRafI=F ISym2E= 0 IDoP0=0 IntGTp=1.
 FoFCou: FMM=T IPFlag=           0 FMFlag=      100000 FMFlg1=        2001
         NFxFlg=           0 DoJE=F BraDBF=F KetDBF=F FulRan=T
         wScrn=  0.000000 ICntrl=         0 IOpCl=  1 I1Cent=           0 NGrid=           0
         NMat0=    1 NMatS0=      1 NMatT0=    0 NMatD0=    1 NMtDS0=    0 NMtDT0=    0
 Symmetry not used in FoFCou.
 FMM levels:  10  Number of levels for PrismC:   9
 Defaulting to unpruned grid for atomic number  53.
 Defaulting to unpruned grid for atomic number  53.
 Defaulting to unpruned grid for atomic number  53.
 Defaulting to unpruned grid for atomic number  53.
 Defaulting to unpruned grid for atomic number  53.
 Defaulting to unpruned grid for atomic number  53.
 Defaulting to unpruned grid for atomic number  53.
 Defaulting to unpruned grid for atomic number  53.
 Defaulting to unpruned grid for atomic number  53.
 Defaulting to unpruned grid for atomic number  53.
 Defaulting to unpruned grid for atomic number  53.
 Defaulting to unpruned grid for atomic number  53.
 Defaulting to unpruned grid for atomic number  53.
 Defaulting to unpruned grid for atomic number  53.
 Defaulting to unpruned grid for atomic number  53.
 Defaulting to unpruned grid for atomic number  53.
 Defaulting to unpruned grid for atomic number  53.
 Defaulting to unpruned grid for atomic number  53.
 Defaulting to unpruned grid for atomic number  53.
 Defaulting to unpruned grid for atomic number  53.
 Defaulting to unpruned grid for atomic number  53.
 Defaulting to unpruned grid for atomic number  53.
 Defaulting to unpruned grid for atomic number  53.
 Defaulting to unpruned grid for atomic number  53.
 Defaulting to unpruned grid for atomic number  53.
 Defaulting to unpruned grid for atomic number  53.
 Defaulting to unpruned grid for atomic number  53.
 Defaulting to unpruned grid for atomic number  53.
 Defaulting to unpruned grid for atomic number  53.
 Defaulting to unpruned grid for atomic number  53.
 Defaulting to unpruned grid for atomic number  53.
 Defaulting to unpruned grid for atomic number  53.
 Defaulting to unpruned grid for atomic number  53.
 Defaulting to unpruned grid for atomic number  53.
 Defaulting to unpruned grid for atomic number  53.
 Defaulting to unpruned grid for atomic number  53.
 Defaulting to unpruned grid for atomic number  53.
 Defaulting to unpruned grid for atomic number  53.
 Defaulting to unpruned grid for atomic number  53.
 Defaulting to unpruned grid for atomic number  53.
 Defaulting to unpruned grid for atomic number  53.
 Defaulting to unpruned grid for atomic number  53.
 Defaulting to unpruned grid for atomic number  53.
 Defaulting to unpruned grid for atomic number  53.
 Defaulting to unpruned grid for atomic number  53.
 Defaulting to unpruned grid for atomic number  53.
 Defaulting to unpruned grid for atomic number  53.
 Defaulting to unpruned grid for atomic number  53.
 Defaulting to unpruned grid for atomic number  53.
 Defaulting to unpruned grid for atomic number  53.
 Defaulting to unpruned grid for atomic number  53.
 Defaulting to unpruned grid for atomic number  53.
 Defaulting to unpruned grid for atomic number  53.
 Defaulting to unpruned grid for atomic number  53.
 Defaulting to unpruned grid for atomic number  53.
 Defaulting to unpruned grid for atomic number  53.
 Defaulting to unpruned grid for atomic number  53.
 Defaulting to unpruned grid for atomic number  53.
 Defaulting to unpruned grid for atomic number  53.
 Defaulting to unpruned grid for atomic number  53.
 Defaulting to unpruned grid for atomic number  53.
 Defaulting to unpruned grid for atomic number  53.
 Defaulting to unpruned grid for atomic number  53.
 Defaulting to unpruned grid for atomic number  53.
 Inv3:  Mode=1 IEnd=   129810252.
 Iteration    1 A*A^-1 deviation from unit magnitude is 5.11D-15 for   6239.
 Iteration    1 A*A^-1 deviation from orthogonality  is 2.95D-15 for   4314    435.
 Iteration    1 A^-1*A deviation from unit magnitude is 5.77D-15 for   2115.
 Iteration    1 A^-1*A deviation from orthogonality  is 9.44D-15 for   4934   4776.
 E= -3272.34292706152    
 DIIS: error= 2.02D-02 at cycle   1 NSaved=   1.
 NSaved= 1 IEnMin= 1 EnMin= -3272.34292706152     IErMin= 1 ErrMin= 2.02D-02
 ErrMax= 2.02D-02  0.00D+00 EMaxC= 1.00D-01 BMatC= 8.13D+00 BMatP= 8.13D+00
 IDIUse=3 WtCom= 7.98D-01 WtEn= 2.02D-01
 Coeff-Com:  0.100D+01
 Coeff-En:   0.100D+01
 Coeff:      0.100D+01
 Gap=     0.081 Goal=   None    Shift=    0.000
 Gap=     0.267 Goal=   None    Shift=    0.000
 GapD=    0.081 DampG=0.500 DampE=0.500 DampFc=0.2500 IDamp=-1.
 Damping current iteration by 2.50D-01
 RMSDP=2.09D-03 MaxDP=4.48D-01              OVMax= 6.72D-01

 Cycle   2  Pass 1  IDiag  1:
 RMSU=  5.21D-04    CP:  1.00D+00
 E= -3272.84920865196     Delta-E=       -0.506281590435 Rises=F Damp=T
 DIIS: error= 1.17D-02 at cycle   2 NSaved=   2.
 NSaved= 2 IEnMin= 2 EnMin= -3272.84920865196     IErMin= 2 ErrMin= 1.17D-02
 ErrMax= 1.17D-02  0.00D+00 EMaxC= 1.00D-01 BMatC= 2.63D+00 BMatP= 8.13D+00
 IDIUse=3 WtCom= 8.83D-01 WtEn= 1.17D-01
 Coeff-Com: -0.988D+00 0.199D+01
 Coeff-En:   0.000D+00 0.100D+01
 Coeff:     -0.873D+00 0.187D+01
 Gap=     0.055 Goal=   None    Shift=    0.000
 Gap=     0.204 Goal=   None    Shift=    0.000
 RMSDP=9.89D-04 MaxDP=2.09D-01 DE=-5.06D-01 OVMax= 6.33D-01

 Cycle   3  Pass 1  IDiag  1:
 RMSU=  7.73D-04    CP:  1.01D+00  2.19D+00
 E= -3273.73742531004     Delta-E=       -0.888216658088 Rises=F Damp=F
 DIIS: error= 7.52D-03 at cycle   3 NSaved=   3.
 NSaved= 3 IEnMin= 3 EnMin= -3273.73742531004     IErMin= 3 ErrMin= 7.52D-03
 ErrMax= 7.52D-03  0.00D+00 EMaxC= 1.00D-01 BMatC= 3.24D-01 BMatP= 2.63D+00
 IDIUse=3 WtCom= 9.25D-01 WtEn= 7.52D-02
 Coeff-Com: -0.440D+00 0.775D+00 0.665D+00
 Coeff-En:   0.000D+00 0.000D+00 0.100D+01
 Coeff:     -0.407D+00 0.717D+00 0.690D+00
 Gap=     0.082 Goal=   None    Shift=    0.000
 Gap=     0.136 Goal=   None    Shift=    0.000
 RMSDP=2.75D-04 MaxDP=7.17D-02 DE=-8.88D-01 OVMax= 6.29D-02

 Cycle   4  Pass 1  IDiag  1:
 RMSU=  2.61D-04    CP:  1.00D+00  2.06D+00  9.32D-01
 E= -3273.79333497249     Delta-E=       -0.055909662444 Rises=F Damp=F
 DIIS: error= 2.46D-03 at cycle   4 NSaved=   4.
 NSaved= 4 IEnMin= 4 EnMin= -3273.79333497249     IErMin= 4 ErrMin= 2.46D-03
 ErrMax= 2.46D-03  0.00D+00 EMaxC= 1.00D-01 BMatC= 5.62D-02 BMatP= 3.24D-01
 IDIUse=3 WtCom= 9.75D-01 WtEn= 2.46D-02
 Coeff-Com: -0.801D-01 0.126D+00 0.315D+00 0.639D+00
 Coeff-En:   0.000D+00 0.000D+00 0.971D-01 0.903D+00
 Coeff:     -0.781D-01 0.123D+00 0.309D+00 0.646D+00
 Gap=     0.097 Goal=   None    Shift=    0.000
 Gap=     0.134 Goal=   None    Shift=    0.000
 RMSDP=1.02D-04 MaxDP=5.28D-02 DE=-5.59D-02 OVMax= 6.19D-02

 Cycle   5  Pass 1  IDiag  1:
 RMSU=  8.52D-05    CP:  1.00D+00  2.07D+00  9.65D-01  8.12D-01
 E= -3273.80508667249     Delta-E=       -0.011751700004 Rises=F Damp=F
 DIIS: error= 5.47D-04 at cycle   5 NSaved=   5.
 NSaved= 5 IEnMin= 5 EnMin= -3273.80508667249     IErMin= 5 ErrMin= 5.47D-04
 ErrMax= 5.47D-04  0.00D+00 EMaxC= 1.00D-01 BMatC= 5.33D-03 BMatP= 5.62D-02
 IDIUse=3 WtCom= 9.95D-01 WtEn= 5.47D-03
 Coeff-Com: -0.188D-01 0.252D-01 0.115D+00 0.322D+00 0.556D+00
 Coeff-En:   0.000D+00 0.000D+00 0.000D+00 0.000D+00 0.100D+01
 Coeff:     -0.187D-01 0.251D-01 0.115D+00 0.320D+00 0.558D+00
 Gap=     0.102 Goal=   None    Shift=    0.000
 Gap=     0.136 Goal=   None    Shift=    0.000
 RMSDP=4.19D-05 MaxDP=1.87D-02 DE=-1.18D-02 OVMax= 1.99D-02

 Cycle   6  Pass 1  IDiag  1:
 RMSU=  3.52D-05    CP:  1.00D+00  2.06D+00  9.56D-01  8.90D-01  9.64D-01
 E= -3273.80654724832     Delta-E=       -0.001460575833 Rises=F Damp=F
 DIIS: error= 2.38D-04 at cycle   6 NSaved=   6.
 NSaved= 6 IEnMin= 6 EnMin= -3273.80654724832     IErMin= 6 ErrMin= 2.38D-04
 ErrMax= 2.38D-04  0.00D+00 EMaxC= 1.00D-01 BMatC= 4.81D-04 BMatP= 5.33D-03
 IDIUse=3 WtCom= 9.98D-01 WtEn= 2.38D-03
 Coeff-Com:  0.208D-03-0.179D-02 0.380D-02 0.393D-01 0.212D+00 0.747D+00
 Coeff-En:   0.000D+00 0.000D+00 0.000D+00 0.000D+00 0.000D+00 0.100D+01
 Coeff:      0.207D-03-0.178D-02 0.379D-02 0.392D-01 0.211D+00 0.747D+00
 Gap=     0.105 Goal=   None    Shift=    0.000
 Gap=     0.137 Goal=   None    Shift=    0.000
 RMSDP=2.91D-05 MaxDP=1.73D-02 DE=-1.46D-03 OVMax= 2.25D-02

 Cycle   7  Pass 1  IDiag  1:
 RMSU=  1.84D-05    CP:  1.00D+00  2.05D+00  9.68D-01  9.02D-01  1.19D+00
                    CP:  1.16D+00
 E= -3273.80687864181     Delta-E=       -0.000331393481 Rises=F Damp=F
 DIIS: error= 1.40D-04 at cycle   7 NSaved=   7.
 NSaved= 7 IEnMin= 7 EnMin= -3273.80687864181     IErMin= 7 ErrMin= 1.40D-04
 ErrMax= 1.40D-04  0.00D+00 EMaxC= 1.00D-01 BMatC= 1.66D-04 BMatP= 4.81D-04
 IDIUse=3 WtCom= 9.99D-01 WtEn= 1.40D-03
 Coeff-Com:  0.510D-02-0.773D-02-0.299D-01-0.653D-01-0.421D-01 0.357D+00
 Coeff-Com:  0.783D+00
 Coeff-En:   0.000D+00 0.000D+00 0.000D+00 0.000D+00 0.000D+00 0.000D+00
 Coeff-En:   0.100D+01
 Coeff:      0.510D-02-0.772D-02-0.298D-01-0.653D-01-0.421D-01 0.357D+00
 Coeff:      0.783D+00
 Gap=     0.107 Goal=   None    Shift=    0.000
 Gap=     0.139 Goal=   None    Shift=    0.000
 RMSDP=2.15D-05 MaxDP=7.36D-03 DE=-3.31D-04 OVMax= 1.59D-02

 Cycle   8  Pass 1  IDiag  1:
 RMSU=  8.20D-06    CP:  1.00D+00  2.04D+00  9.69D-01  9.29D-01  1.32D+00
                    CP:  1.49D+00  1.40D+00
 E= -3273.80704331132     Delta-E=       -0.000164669518 Rises=F Damp=F
 DIIS: error= 5.94D-05 at cycle   8 NSaved=   8.
 NSaved= 8 IEnMin= 8 EnMin= -3273.80704331132     IErMin= 8 ErrMin= 5.94D-05
 ErrMax= 5.94D-05  0.00D+00 EMaxC= 1.00D-01 BMatC= 3.99D-05 BMatP= 1.66D-04
 IDIUse=1 WtCom= 1.00D+00 WtEn= 0.00D+00
 Coeff-Com:  0.614D-03-0.448D-03-0.102D-01-0.316D-01-0.769D-01-0.120D+00
 Coeff-Com:  0.245D+00 0.994D+00
 Coeff:      0.614D-03-0.448D-03-0.102D-01-0.316D-01-0.769D-01-0.120D+00
 Coeff:      0.245D+00 0.994D+00
 Gap=     0.109 Goal=   None    Shift=    0.000
 Gap=     0.140 Goal=   None    Shift=    0.000
 RMSDP=1.68D-05 MaxDP=7.13D-03 DE=-1.65D-04 OVMax= 1.30D-02

 Cycle   9  Pass 1  IDiag  1:
 RMSU=  3.52D-06    CP:  1.00D+00  2.04D+00  9.73D-01  9.41D-01  1.43D+00
                    CP:  1.69D+00  1.93D+00  1.58D+00
 E= -3273.80710556916     Delta-E=       -0.000062257832 Rises=F Damp=F
 DIIS: error= 2.44D-05 at cycle   9 NSaved=   9.
 NSaved= 9 IEnMin= 9 EnMin= -3273.80710556916     IErMin= 9 ErrMin= 2.44D-05
 ErrMax= 2.44D-05  0.00D+00 EMaxC= 1.00D-01 BMatC= 1.34D-05 BMatP= 3.99D-05
 IDIUse=1 WtCom= 1.00D+00 WtEn= 0.00D+00
 Coeff-Com: -0.127D-02 0.213D-02 0.409D-02 0.569D-02-0.173D-01-0.147D+00
 Coeff-Com: -0.124D+00 0.444D+00 0.834D+00
 Coeff:     -0.127D-02 0.213D-02 0.409D-02 0.569D-02-0.173D-01-0.147D+00
 Coeff:     -0.124D+00 0.444D+00 0.834D+00
 Gap=     0.110 Goal=   None    Shift=    0.000
 Gap=     0.140 Goal=   None    Shift=    0.000
 RMSDP=7.54D-06 MaxDP=2.63D-03 DE=-6.23D-05 OVMax= 5.68D-03

 Cycle  10  Pass 1  IDiag  1:
 RMSU=  2.03D-06    CP:  1.00D+00  2.04D+00  9.73D-01  9.44D-01  1.47D+00
                    CP:  1.79D+00  2.15D+00  1.97D+00  1.32D+00
 E= -3273.80711882701     Delta-E=       -0.000013257850 Rises=F Damp=F
 DIIS: error= 1.09D-05 at cycle  10 NSaved=  10.
 NSaved=10 IEnMin=10 EnMin= -3273.80711882701     IErMin=10 ErrMin= 1.09D-05
 ErrMax= 1.09D-05  0.00D+00 EMaxC= 1.00D-01 BMatC= 3.49D-06 BMatP= 1.34D-05
 IDIUse=1 WtCom= 1.00D+00 WtEn= 0.00D+00
 Coeff-Com: -0.689D-03 0.998D-03 0.448D-02 0.114D-01 0.133D-01-0.376D-01
 Coeff-Com: -0.129D+00-0.641D-01 0.400D+00 0.802D+00
 Coeff:     -0.689D-03 0.998D-03 0.448D-02 0.114D-01 0.133D-01-0.376D-01
 Coeff:     -0.129D+00-0.641D-01 0.400D+00 0.802D+00
 Gap=     0.110 Goal=   None    Shift=    0.000
 Gap=     0.140 Goal=   None    Shift=    0.000
 RMSDP=3.26D-06 MaxDP=1.12D-03 DE=-1.33D-05 OVMax= 1.91D-03

 Cycle  11  Pass 1  IDiag  1:
 RMSU=  9.55D-07    CP:  1.00D+00  2.03D+00  9.73D-01  9.45D-01  1.48D+00
                    CP:  1.82D+00  2.24D+00  2.15D+00  1.59D+00  1.12D+00
 E= -3273.80712111681     Delta-E=       -0.000002289806 Rises=F Damp=F
 DIIS: error= 4.62D-06 at cycle  11 NSaved=  11.
 NSaved=11 IEnMin=11 EnMin= -3273.80712111681     IErMin=11 ErrMin= 4.62D-06
 ErrMax= 4.62D-06  0.00D+00 EMaxC= 1.00D-01 BMatC= 5.86D-07 BMatP= 3.49D-06
 IDIUse=1 WtCom= 1.00D+00 WtEn= 0.00D+00
 Coeff-Com: -0.140D-03 0.168D-03 0.129D-02 0.408D-02 0.779D-02 0.332D-02
 Coeff-Com: -0.370D-01-0.817D-01 0.546D-01 0.352D+00 0.695D+00
 Coeff:     -0.140D-03 0.168D-03 0.129D-02 0.408D-02 0.779D-02 0.332D-02
 Coeff:     -0.370D-01-0.817D-01 0.546D-01 0.352D+00 0.695D+00
 Gap=     0.110 Goal=   None    Shift=    0.000
 Gap=     0.140 Goal=   None    Shift=    0.000
 RMSDP=6.48D-07 MaxDP=2.28D-04 DE=-2.29D-06 OVMax= 2.58D-04

 Cycle  12  Pass 1  IDiag  1:
 RMSU=  4.16D-07    CP:  1.00D+00  2.03D+00  9.73D-01  9.45D-01  1.48D+00
                    CP:  1.82D+00  2.25D+00  2.17D+00  1.64D+00  1.27D+00
                    CP:  1.12D+00
 E= -3273.80712138102     Delta-E=       -0.000000264205 Rises=F Damp=F
 DIIS: error= 2.93D-06 at cycle  12 NSaved=  12.
 NSaved=12 IEnMin=12 EnMin= -3273.80712138102     IErMin=12 ErrMin= 2.93D-06
 ErrMax= 2.93D-06  0.00D+00 EMaxC= 1.00D-01 BMatC= 1.87D-07 BMatP= 5.86D-07
 IDIUse=1 WtCom= 1.00D+00 WtEn= 0.00D+00
 Coeff-Com:  0.901D-04-0.148D-03-0.480D-03-0.834D-03 0.513D-03 0.114D-01
 Coeff-Com:  0.149D-01-0.227D-01-0.798D-01-0.204D-01 0.374D+00 0.724D+00
 Coeff:      0.901D-04-0.148D-03-0.480D-03-0.834D-03 0.513D-03 0.114D-01
 Coeff:      0.149D-01-0.227D-01-0.798D-01-0.204D-01 0.374D+00 0.724D+00
 Gap=     0.110 Goal=   None    Shift=    0.000
 Gap=     0.140 Goal=   None    Shift=    0.000
 RMSDP=3.60D-07 MaxDP=4.53D-05 DE=-2.64D-07 OVMax= 2.38D-04

 Cycle  13  Pass 1  IDiag  1:
 RMSU=  2.32D-07    CP:  1.00D+00  2.03D+00  9.73D-01  9.45D-01  1.48D+00
                    CP:  1.82D+00  2.25D+00  2.17D+00  1.67D+00  1.33D+00
                    CP:  1.33D+00  1.15D+00
 E= -3273.80712149597     Delta-E=       -0.000000114953 Rises=F Damp=F
 DIIS: error= 1.58D-06 at cycle  13 NSaved=  13.
 NSaved=13 IEnMin=13 EnMin= -3273.80712149597     IErMin=13 ErrMin= 1.58D-06
 ErrMax= 1.58D-06  0.00D+00 EMaxC= 1.00D-01 BMatC= 4.69D-08 BMatP= 1.87D-07
 IDIUse=1 WtCom= 1.00D+00 WtEn= 0.00D+00
 Coeff-Com:  0.719D-04-0.105D-03-0.489D-03-0.129D-02-0.152D-02 0.463D-02
 Coeff-Com:  0.152D-01 0.835D-02-0.517D-01-0.879D-01 0.226D-01 0.347D+00
 Coeff-Com:  0.745D+00
 Coeff:      0.719D-04-0.105D-03-0.489D-03-0.129D-02-0.152D-02 0.463D-02
 Coeff:      0.152D-01 0.835D-02-0.517D-01-0.879D-01 0.226D-01 0.347D+00
 Coeff:      0.745D+00
 Gap=     0.110 Goal=   None    Shift=    0.000
 Gap=     0.140 Goal=   None    Shift=    0.000
 RMSDP=2.31D-07 MaxDP=4.58D-05 DE=-1.15D-07 OVMax= 1.80D-04

 Cycle  14  Pass 1  IDiag  1:
 RMSU=  1.21D-07    CP:  1.00D+00  2.03D+00  9.73D-01  9.45D-01  1.48D+00
                    CP:  1.82D+00  2.25D+00  2.17D+00  1.67D+00  1.36D+00
                    CP:  1.43D+00  1.47D+00  1.32D+00
 E= -3273.80712154217     Delta-E=       -0.000000046202 Rises=F Damp=F
 DIIS: error= 8.60D-07 at cycle  14 NSaved=  14.
 NSaved=14 IEnMin=14 EnMin= -3273.80712154217     IErMin=14 ErrMin= 8.60D-07
 ErrMax= 8.60D-07  0.00D+00 EMaxC= 1.00D-01 BMatC= 1.65D-08 BMatP= 4.69D-08
 IDIUse=1 WtCom= 1.00D+00 WtEn= 0.00D+00
 Coeff-Com:  0.491D-05-0.134D-05-0.278D-04-0.270D-03-0.849D-03-0.206D-02
 Coeff-Com:  0.119D-02 0.117D-01 0.588D-02-0.302D-01-0.128D+00-0.109D+00
 Coeff-Com:  0.333D+00 0.918D+00
 Coeff:      0.491D-05-0.134D-05-0.278D-04-0.270D-03-0.849D-03-0.206D-02
 Coeff:      0.119D-02 0.117D-01 0.588D-02-0.302D-01-0.128D+00-0.109D+00
 Coeff:      0.333D+00 0.918D+00
 Gap=     0.110 Goal=   None    Shift=    0.000
 Gap=     0.140 Goal=   None    Shift=    0.000
 RMSDP=2.00D-07 MaxDP=4.63D-05 DE=-4.62D-08 OVMax= 1.53D-04

 Cycle  15  Pass 1  IDiag  1:
 RMSU=  7.70D-08    CP:  1.00D+00  2.03D+00  9.73D-01  9.45D-01  1.48D+00
                    CP:  1.82D+00  2.25D+00  2.17D+00  1.67D+00  1.37D+00
                    CP:  1.50D+00  1.68D+00  1.82D+00  1.61D+00
 E= -3273.80712157035     Delta-E=       -0.000000028178 Rises=F Damp=F
 DIIS: error= 5.21D-07 at cycle  15 NSaved=  15.
 NSaved=15 IEnMin=15 EnMin= -3273.80712157035     IErMin=15 ErrMin= 5.21D-07
 ErrMax= 5.21D-07  0.00D+00 EMaxC= 1.00D-01 BMatC= 5.04D-09 BMatP= 1.65D-08
 IDIUse=1 WtCom= 1.00D+00 WtEn= 0.00D+00
 Coeff-Com: -0.229D-04 0.355D-04 0.184D-03 0.402D-03 0.333D-03-0.233D-02
 Coeff-Com: -0.554D-02-0.532D-03 0.211D-01 0.267D-01-0.428D-01-0.153D+00
 Coeff-Com: -0.188D+00 0.216D+00 0.113D+01
 Coeff:     -0.229D-04 0.355D-04 0.184D-03 0.402D-03 0.333D-03-0.233D-02
 Coeff:     -0.554D-02-0.532D-03 0.211D-01 0.267D-01-0.428D-01-0.153D+00
 Coeff:     -0.188D+00 0.216D+00 0.113D+01
 Gap=     0.110 Goal=   None    Shift=    0.000
 Gap=     0.140 Goal=   None    Shift=    0.000
 RMSDP=1.72D-07 MaxDP=5.20D-05 DE=-2.82D-08 OVMax= 1.20D-04

 Cycle  16  Pass 1  IDiag  1:
 RMSU=  4.27D-08    CP:  1.00D+00  2.03D+00  9.73D-01  9.45D-01  1.48D+00
                    CP:  1.82D+00  2.25D+00  2.17D+00  1.67D+00  1.37D+00
                    CP:  1.53D+00  1.85D+00  2.22D+00  2.33D+00  1.80D+00
 E= -3273.80712158456     Delta-E=       -0.000000014210 Rises=F Damp=F
 DIIS: error= 3.60D-07 at cycle  16 NSaved=  16.
 NSaved=16 IEnMin=16 EnMin= -3273.80712158456     IErMin=16 ErrMin= 3.60D-07
 ErrMax= 3.60D-07  0.00D+00 EMaxC= 1.00D-01 BMatC= 2.11D-09 BMatP= 5.04D-09
 IDIUse=1 WtCom= 1.00D+00 WtEn= 0.00D+00
 Coeff-Com: -0.915D-05 0.126D-04 0.747D-04 0.228D-03 0.389D-03-0.162D-03
 Coeff-Com: -0.241D-02-0.410D-02 0.588D-02 0.197D-01 0.226D-01-0.216D-01
 Coeff-Com: -0.182D+00-0.235D+00 0.462D+00 0.935D+00
 Coeff:     -0.915D-05 0.126D-04 0.747D-04 0.228D-03 0.389D-03-0.162D-03
 Coeff:     -0.241D-02-0.410D-02 0.588D-02 0.197D-01 0.226D-01-0.216D-01
 Coeff:     -0.182D+00-0.235D+00 0.462D+00 0.935D+00
 Gap=     0.110 Goal=   None    Shift=    0.000
 Gap=     0.140 Goal=   None    Shift=    0.000
 RMSDP=1.07D-07 MaxDP=3.55D-05 DE=-1.42D-08 OVMax= 6.59D-05

 Cycle  17  Pass 1  IDiag  1:
 RMSU=  2.31D-08    CP:  1.00D+00  2.03D+00  9.73D-01  9.45D-01  1.48D+00
                    CP:  1.82D+00  2.26D+00  2.17D+00  1.67D+00  1.38D+00
                    CP:  1.55D+00  1.93D+00  2.44D+00  2.76D+00  2.42D+00
                    CP:  1.65D+00
 E= -3273.80712158966     Delta-E=       -0.000000005100 Rises=F Damp=F
 DIIS: error= 2.86D-07 at cycle  17 NSaved=  17.
 NSaved=17 IEnMin=17 EnMin= -3273.80712158966     IErMin=17 ErrMin= 2.86D-07
 ErrMax= 2.86D-07  0.00D+00 EMaxC= 1.00D-01 BMatC= 7.29D-10 BMatP= 2.11D-09
 IDIUse=1 WtCom= 1.00D+00 WtEn= 0.00D+00
 Coeff-Com:  0.485D-05-0.792D-05-0.457D-04-0.777D-04-0.145D-04 0.819D-03
 Coeff-Com:  0.129D-02-0.106D-02-0.618D-02-0.412D-02 0.221D-01 0.522D-01
 Coeff-Com:  0.212D-01-0.145D+00-0.283D+00 0.243D+00 0.110D+01
 Coeff:      0.485D-05-0.792D-05-0.457D-04-0.777D-04-0.145D-04 0.819D-03
 Coeff:      0.129D-02-0.106D-02-0.618D-02-0.412D-02 0.221D-01 0.522D-01
 Coeff:      0.212D-01-0.145D+00-0.283D+00 0.243D+00 0.110D+01
 Gap=     0.110 Goal=   None    Shift=    0.000
 Gap=     0.140 Goal=   None    Shift=    0.000
 RMSDP=6.89D-08 MaxDP=1.82D-05 DE=-5.10D-09 OVMax= 3.74D-05

 Cycle  18  Pass 1  IDiag  1:
 RMSU=  1.75D-08    CP:  1.00D+00  2.03D+00  9.73D-01  9.45D-01  1.48D+00
                    CP:  1.82D+00  2.26D+00  2.17D+00  1.68D+00  1.38D+00
                    CP:  1.56D+00  1.97D+00  2.54D+00  3.00D+00  2.84D+00
                    CP:  2.28D+00  1.76D+00
 E= -3273.80712159164     Delta-E=       -0.000000001977 Rises=F Damp=F
 DIIS: error= 2.44D-07 at cycle  18 NSaved=  18.
 NSaved=18 IEnMin=18 EnMin= -3273.80712159164     IErMin=18 ErrMin= 2.44D-07
 ErrMax= 2.44D-07  0.00D+00 EMaxC= 1.00D-01 BMatC= 3.93D-10 BMatP= 7.29D-10
 IDIUse=1 WtCom= 1.00D+00 WtEn= 0.00D+00
 Coeff-Com:  0.490D-05-0.742D-05-0.460D-04-0.110D-03-0.135D-03 0.432D-03
 Coeff-Com:  0.139D-02 0.864D-03-0.484D-02-0.821D-02 0.330D-02 0.315D-01
 Coeff-Com:  0.660D-01 0.492D-02-0.281D+00-0.180D+00 0.549D+00 0.817D+00
 Coeff:      0.490D-05-0.742D-05-0.460D-04-0.110D-03-0.135D-03 0.432D-03
 Coeff:      0.139D-02 0.864D-03-0.484D-02-0.821D-02 0.330D-02 0.315D-01
 Coeff:      0.660D-01 0.492D-02-0.281D+00-0.180D+00 0.549D+00 0.817D+00
 Gap=     0.110 Goal=   None    Shift=    0.000
 Gap=     0.140 Goal=   None    Shift=    0.000
 RMSDP=3.43D-08 MaxDP=6.62D-06 DE=-1.98D-09 OVMax= 2.10D-05

 Cycle  19  Pass 1  IDiag  1:
 RMSU=  1.58D-08    CP:  1.00D+00  2.03D+00  9.73D-01  9.45D-01  1.48D+00
                    CP:  1.82D+00  2.26D+00  2.17D+00  1.68D+00  1.38D+00
                    CP:  1.56D+00  1.99D+00  2.58D+00  3.00D+00  3.00D+00
                    CP:  2.63D+00  2.36D+00  1.52D+00
 E= -3273.80712159239     Delta-E=       -0.000000000753 Rises=F Damp=F
 DIIS: error= 1.98D-07 at cycle  19 NSaved=  19.
 NSaved=19 IEnMin=19 EnMin= -3273.80712159239     IErMin=19 ErrMin= 1.98D-07
 ErrMax= 1.98D-07  0.00D+00 EMaxC= 1.00D-01 BMatC= 2.06D-10 BMatP= 3.93D-10
 IDIUse=1 WtCom= 1.00D+00 WtEn= 0.00D+00
 Coeff-Com:  0.910D-07 0.121D-06-0.190D-06-0.170D-04-0.632D-04-0.217D-03
 Coeff-Com:  0.788D-04 0.116D-02 0.682D-03-0.236D-02-0.108D-01-0.122D-01
 Coeff-Com:  0.251D-01 0.887D-01-0.225D-02-0.245D+00-0.306D+00 0.463D+00
 Coeff-Com:  0.100D+01
 Coeff:      0.910D-07 0.121D-06-0.190D-06-0.170D-04-0.632D-04-0.217D-03
 Coeff:      0.788D-04 0.116D-02 0.682D-03-0.236D-02-0.108D-01-0.122D-01
 Coeff:      0.251D-01 0.887D-01-0.225D-02-0.245D+00-0.306D+00 0.463D+00
 Coeff:      0.100D+01
 Gap=     0.110 Goal=   None    Shift=    0.000
 Gap=     0.140 Goal=   None    Shift=    0.000
 RMSDP=2.94D-08 MaxDP=4.15D-06 DE=-7.53D-10 OVMax= 1.89D-05

 Cycle  20  Pass 1  IDiag  1:
 RMSU=  1.16D-08    CP:  1.00D+00  2.03D+00  9.73D-01  9.45D-01  1.48D+00
                    CP:  1.82D+00  2.26D+00  2.17D+00  1.68D+00  1.38D+00
                    CP:  1.56D+00  2.00D+00  2.61D+00  3.00D+00  3.00D+00
                    CP:  2.91D+00  2.92D+00  2.33D+00  1.68D+00
 E= -3273.80712159284     Delta-E=       -0.000000000449 Rises=F Damp=F
 DIIS: error= 1.36D-07 at cycle  20 NSaved=  20.
 NSaved=20 IEnMin=20 EnMin= -3273.80712159284     IErMin=20 ErrMin= 1.36D-07
 ErrMax= 1.36D-07  0.00D+00 EMaxC= 1.00D-01 BMatC= 1.00D-10 BMatP= 2.06D-10
 IDIUse=1 WtCom= 1.00D+00 WtEn= 0.00D+00
 Coeff-Com: -0.213D-05 0.340D-05 0.219D-04 0.432D-04 0.336D-04-0.324D-03
 Coeff-Com: -0.616D-03 0.194D-03 0.263D-02 0.267D-02-0.718D-02-0.215D-01
 Coeff-Com: -0.182D-01 0.463D-01 0.129D+00-0.390D-01-0.422D+00-0.165D+00
 Coeff-Com:  0.534D+00 0.958D+00
 Coeff:     -0.213D-05 0.340D-05 0.219D-04 0.432D-04 0.336D-04-0.324D-03
 Coeff:     -0.616D-03 0.194D-03 0.263D-02 0.267D-02-0.718D-02-0.215D-01
 Coeff:     -0.182D-01 0.463D-01 0.129D+00-0.390D-01-0.422D+00-0.165D+00
 Coeff:      0.534D+00 0.958D+00
 Gap=     0.110 Goal=   None    Shift=    0.000
 Gap=     0.140 Goal=   None    Shift=    0.000
 RMSDP=2.09D-08 MaxDP=3.24D-06 DE=-4.49D-10 OVMax= 1.66D-05

 Cycle  21  Pass 1  IDiag  1:
 Restarting incremental Fock formation.
 E= -3273.80712159327     Delta-E=       -0.000000000426 Rises=F Damp=F
 DIIS: error= 8.59D-08 at cycle  21 NSaved=  20.
 NSaved=20 IEnMin=20 EnMin= -3273.80712159327     IErMin=20 ErrMin= 8.59D-08
 ErrMax= 8.59D-08  0.00D+00 EMaxC= 1.00D-01 BMatC= 4.45D-11 BMatP= 1.00D-10
 IDIUse=1 WtCom= 1.00D+00 WtEn= 0.00D+00
 Coeff-Com: -0.716D-07 0.580D-05 0.181D-04 0.350D-04-0.149D-04-0.228D-03
 Coeff-Com: -0.481D-03 0.637D-03 0.197D-02 0.258D-02-0.201D-02-0.189D-01
 Coeff-Com: -0.232D-01 0.472D-01 0.107D+00-0.230D-01-0.301D+00-0.257D+00
 Coeff-Com:  0.389D+00 0.108D+01
 Coeff:     -0.716D-07 0.580D-05 0.181D-04 0.350D-04-0.149D-04-0.228D-03
 Coeff:     -0.481D-03 0.637D-03 0.197D-02 0.258D-02-0.201D-02-0.189D-01
 Coeff:     -0.232D-01 0.472D-01 0.107D+00-0.230D-01-0.301D+00-0.257D+00
 Coeff:      0.389D+00 0.108D+01
 Gap=     0.110 Goal=   None    Shift=    0.000
 Gap=     0.140 Goal=   None    Shift=    0.000
 RMSDP=1.65D-08 MaxDP=2.19D-06 DE=-4.26D-10 OVMax= 1.19D-05

 Cycle  22  Pass 1  IDiag  1:
 RMSU=  1.65D-08    CP:  1.00D+00
 E= -3273.80712159310     Delta-E=        0.000000000166 Rises=F Damp=F
 DIIS: error= 5.19D-08 at cycle  22 NSaved=  20.
 NSaved=20 IEnMin=19 EnMin= -3273.80712159327     IErMin=20 ErrMin= 5.19D-08
 ErrMax= 5.19D-08  0.00D+00 EMaxC= 1.00D-01 BMatC= 2.11D-11 BMatP= 4.45D-11
 IDIUse=1 WtCom= 1.00D+00 WtEn= 0.00D+00
 Coeff-Com: -0.441D-05-0.370D-05 0.121D-04 0.152D-03 0.136D-03-0.418D-03
 Coeff-Com: -0.852D-03-0.732D-04 0.531D-02 0.990D-02-0.196D-02-0.382D-01
 Coeff-Com: -0.428D-01 0.821D-01 0.217D+00-0.579D-01-0.423D+00-0.375D+00
 Coeff-Com:  0.531D+00 0.110D+01
 Coeff:     -0.441D-05-0.370D-05 0.121D-04 0.152D-03 0.136D-03-0.418D-03
 Coeff:     -0.852D-03-0.732D-04 0.531D-02 0.990D-02-0.196D-02-0.382D-01
 Coeff:     -0.428D-01 0.821D-01 0.217D+00-0.579D-01-0.423D+00-0.375D+00
 Coeff:      0.531D+00 0.110D+01
 Gap=     0.110 Goal=   None    Shift=    0.000
 Gap=     0.140 Goal=   None    Shift=    0.000
 RMSDP=1.39D-08 MaxDP=3.30D-06 DE= 1.66D-10 OVMax= 1.00D-05

 Cycle  23  Pass 1  IDiag  1:
 RMSU=  4.67D-09    CP:  1.00D+00  1.79D+00
 E= -3273.80712159326     Delta-E=       -0.000000000164 Rises=F Damp=F
 DIIS: error= 2.20D-08 at cycle  23 NSaved=  20.
 NSaved=20 IEnMin=18 EnMin= -3273.80712159327     IErMin=20 ErrMin= 2.20D-08
 ErrMax= 2.20D-08  0.00D+00 EMaxC= 1.00D-01 BMatC= 6.30D-12 BMatP= 2.11D-11
 IDIUse=1 WtCom= 1.00D+00 WtEn= 0.00D+00
 Coeff-Com:  0.192D-05 0.120D-05 0.176D-04 0.149D-04 0.113D-04-0.122D-03
 Coeff-Com: -0.254D-03-0.311D-04 0.135D-02 0.338D-02-0.114D-02-0.161D-01
 Coeff-Com: -0.116D-01 0.481D-01 0.808D-01-0.230D-01-0.244D+00-0.223D+00
 Coeff-Com:  0.375D+00 0.101D+01
 Coeff:      0.192D-05 0.120D-05 0.176D-04 0.149D-04 0.113D-04-0.122D-03
 Coeff:     -0.254D-03-0.311D-04 0.135D-02 0.338D-02-0.114D-02-0.161D-01
 Coeff:     -0.116D-01 0.481D-01 0.808D-01-0.230D-01-0.244D+00-0.223D+00
 Coeff:      0.375D+00 0.101D+01
 Gap=     0.110 Goal=   None    Shift=    0.000
 Gap=     0.140 Goal=   None    Shift=    0.000
 RMSDP=7.04D-09 MaxDP=8.79D-07 DE=-1.64D-10 OVMax= 4.61D-06

 Error on total polarization charges =  0.02701
 SCF Done:  E(UM062X) =  -3273.80712159     A.U. after   23 cycles
            NFock= 23  Conv=0.70D-08     -V/T= 2.1322
 <Sx>= 0.0000 <Sy>= 0.0000 <Sz>= 0.5000 <S**2>= 0.7926 S= 0.5211
 <L.S>=  0.00000000000    
 KE= 2.891530321831D+03 PE=-2.499396891558D+04 EE= 1.011442273021D+04
 Annihilation of the first spin contaminant:
 S**2 before annihilation     0.7926,   after     0.7514
 Leave Link  502 at Sun Oct 12 09:24:10 2025, MaxMem= 30870077440 cpu:          207158.4 elap:            3278.2
 (Enter /work/home/accqbws0vm/apprepo/gaussian/16-hy/scripts/../app/g16/l601.exe)
 Copying SCF densities to generalized density rwf, IOpCl= 1 IROHF=0.

 **********************************************************************

            Population analysis using the SCF density.

 **********************************************************************

 Orbital symmetries:
 Alpha Orbitals:
       Occupied  (A) (A) (A) (A) (A) (A) (A) (A) (A) (A) (A) (A)
                 (A) (A) (A) (A) (A) (A) (A) (A) (A) (A) (A) (A)
                 (A) (A) (A) (A) (A) (A) (A) (A) (A) (A) (A) (A)
                 (A) (A) (A) (A) (A) (A) (A) (A) (A) (A) (A) (A)
                 (A) (A) (A) (A) (A) (A) (A) (A) (A) (A) (A) (A)
                 (A) (A) (A) (A) (A) (A) (A) (A) (A) (A) (A) (A)
                 (A) (A) (A) (A) (A) (A) (A) (A) (A) (A) (A) (A)
                 (A) (A) (A) (A) (A) (A) (A) (A) (A) (A) (A) (A)
                 (A) (A) (A) (A) (A) (A) (A) (A) (A) (A) (A) (A)
                 (A) (A) (A) (A) (A) (A) (A) (A) (A) (A) (A) (A)
                 (A) (A) (A) (A) (A) (A) (A) (A) (A) (A) (A) (A)
                 (A) (A) (A) (A) (A) (A) (A) (A) (A) (A) (A) (A)
                 (A) (A) (A) (A) (A) (A) (A) (A) (A) (A) (A) (A)
                 (A) (A) (A) (A) (A) (A) (A) (A) (A) (A) (A) (A)
                 (A) (A) (A) (A) (A) (A) (A) (A) (A) (A) (A) (A)
                 (A) (A) (A) (A) (A) (A) (A) (A) (A) (A) (A) (A)
                 (A) (A) (A) (A) (A) (A) (A) (A) (A) (A) (A) (A)
                 (A) (A) (A) (A) (A) (A) (A) (A) (A) (A) (A) (A)
                 (A) (A) (A) (A) (A)
       Virtual   (A) (A) (A) (A) (A) (A) (A) (A) (A) (A) (A) (A)
                 (A) (A) (A) (A) (A) (A) (A) (A) (A) (A) (A) (A)
                 (A) (A) (A) (A) (A) (A) (A) (A) (A) (A) (A) (A)
                 (A) (A) (A) (A) (A) (A) (A) (A) (A) (A) (A) (A)
                 (A) (A) (A) (A) (A) (A) (A) (A) (A) (A) (A) (A)
                 (A) (A) (A) (A) (A) (A) (A) (A) (A) (A) (A) (A)
                 (A) (A) (A) (A) (A) (A) (A) (A) (A) (A) (A) (A)
                 (A) (A) (A) (A) (A) (A) (A) (A) (A) (A) (A) (A)
                 (A) (A) (A) (A) (A) (A) (A) (A) (A) (A) (A) (A)
                 (A) (A) (A) (A) (A) (A) (A) (A) (A) (A) (A) (A)
                 (A) (A) (A) (A) (A) (A) (A) (A) (A) (A) (A) (A)
                 (A) (A) (A) (A) (A) (A) (A) (A) (A) (A) (A) (A)
                 (A) (A) (A) (A) (A) (A) (A) (A) (A) (A) (A) (A)
                 (A) (A) (A) (A) (A) (A) (A) (A) (A) (A) (A) (A)
                 (A) (A) (A) (A) (A) (A) (A) (A) (A) (A) (A) (A)
                 (A) (A) (A) (A) (A) (A) (A) (A) (A) (A) (A) (A)
                 (A) (A) (A) (A) (A) (A) (A) (A) (A) (A) (A) (A)
                 (A) (A) (A) (A) (A) (A) (A) (A) (A) (A) (A) (A)
                 (A) (A) (A) (A) (A) (A) (A) (A) (A) (A) (A) (A)
                 (A) (A) (A) (A) (A) (A) (A) (A) (A) (A) (A) (A)
                 (A) (A) (A) (A) (A) (A) (A) (A) (A) (A) (A) (A)
                 (A) (A) (A) (A) (A) (A) (A) (A) (A) (A) (A) (A)
                 (A) (A) (A) (A) (A) (A) (A) (A) (A) (A) (A) (A)
                 (A) (A) (A) (A) (A) (A) (A) (A) (A) (A) (A) (A)
                 (A) (A) (A) (A) (A) (A) (A) (A) (A) (A) (A) (A)
                 (A) (A) (A) (A) (A) (A) (A) (A) (A) (A) (A) (A)
                 (A) (A) (A) (A) (A) (A) (A) (A) (A) (A) (A) (A)
                 (A) (A) (A) (A) (A) (A) (A) (A) (A) (A) (A) (A)
                 (A) (A) (A) (A) (A) (A) (A) (A) (A) (A) (A) (A)
                 (A) (A) (A) (A) (A) (A) (A) (A) (A) (A) (A) (A)
                 (A) (A) (A) (A) (A) (A) (A) (A) (A) (A) (A) (A)
                 (A) (A) (A) (A) (A) (A) (A) (A) (A) (A) (A) (A)
                 (A) (A) (A) (A) (A) (A) (A) (A) (A) (A) (A) (A)
                 (A) (A) (A) (A) (A) (A) (A) (A) (A) (A) (A) (A)
                 (A) (A) (A) (A) (A) (A) (A) (A) (A) (A) (A) (A)
                 (A) (A) (A) (A) (A) (A) (A) (A) (A) (A) (A) (A)
                 (A) (A) (A) (A) (A) (A) (A) (A) (A) (A) (A) (A)
                 (A) (A) (A) (A) (A) (A) (A) (A) (A) (A) (A) (A)
                 (A) (A) (A) (A) (A) (A) (A) (A) (A) (A) (A) (A)
                 (A) (A) (A) (A) (A) (A) (A) (A) (A) (A) (A) (A)
                 (A) (A) (A) (A) (A) (A) (A) (A) (A) (A) (A) (A)
                 (A) (A) (A) (A) (A) (A) (A) (A) (A) (A) (A) (A)
                 (A) (A) (A) (A) (A) (A) (A) (A) (A) (A) (A) (A)
                 (A) (A) (A) (A) (A) (A) (A) (A) (A) (A) (A) (A)
                 (A) (A) (A) (A) (A) (A) (A) (A) (A) (A) (A) (A)
                 (A) (A) (A) (A) (A) (A) (A) (A) (A) (A) (A) (A)
                 (A) (A) (A) (A) (A) (A) (A) (A) (A) (A) (A) (A)
                 (A) (A) (A) (A) (A) (A) (A) (A) (A) (A) (A) (A)
                 (A) (A) (A) (A) (A) (A) (A) (A) (A) (A) (A) (A)
                 (A) (A) (A) (A) (A) (A) (A) (A) (A) (A) (A) (A)
                 (A) (A) (A) (A) (A) (A) (A) (A) (A) (A) (A) (A)
                 (A) (A) (A) (A) (A) (A) (A) (A) (A) (A) (A) (A)
                 (A) (A) (A) (A) (A) (A) (A) (A) (A) (A) (A) (A)
                 (A) (A) (A) (A) (A) (A) (A) (A) (A) (A) (A) (A)
                 (A) (A) (A) (A) (A) (A) (A) (A) (A) (A) (A) (A)
                 (A) (A) (A) (A) (A) (A) (A) (A) (A) (A) (A) (A)
                 (A) (A) (A) (A) (A) (A) (A) (A) (A) (A) (A) (A)
                 (A) (A) (A) (A) (A) (A) (A) (A) (A) (A) (A) (A)
                 (A) (A) (A) (A) (A) (A) (A) (A) (A) (A) (A) (A)
                 (A) (A) (A) (A) (A) (A) (A) (A) (A) (A) (A) (A)
                 (A) (A) (A) (A) (A) (A) (A) (A) (A) (A) (A) (A)
                 (A) (A) (A) (A) (A) (A) (A) (A) (A) (A) (A) (A)
                 (A) (A) (A) (A) (A) (A) (A) (A) (A) (A) (A) (A)
                 (A) (A) (A) (A) (A) (A) (A) (A) (A) (A) (A) (A)
                 (A) (A) (A) (A) (A) (A) (A) (A) (A) (A) (A) (A)
                 (A) (A) (A) (A) (A) (A) (A) (A) (A) (A) (A) (A)
                 (A) (A) (A) (A) (A) (A) (A) (A) (A) (A) (A) (A)
                 (A) (A) (A) (A) (A) (A) (A) (A) (A) (A) (A) (A)
                 (A) (A) (A) (A) (A) (A) (A) (A) (A) (A) (A) (A)
                 (A) (A) (A) (A) (A) (A) (A) (A) (A) (A) (A) (A)
                 (A) (A) (A) (A) (A) (A) (A) (A) (A) (A) (A) (A)
                 (A) (A) (A) (A) (A) (A) (A) (A) (A) (A) (A) (A)
                 (A) (A) (A) (A) (A) (A) (A) (A) (A) (A) (A) (A)
                 (A) (A) (A) (A) (A) (A) (A) (A) (A) (A) (A) (A)
                 (A) (A) (A) (A) (A) (A) (A) (A) (A) (A) (A) (A)
                 (A) (A) (A) (A) (A) (A) (A) (A) (A) (A) (A) (A)
                 (A) (A) (A) (A) (A) (A) (A) (A) (A) (A) (A) (A)
                 (A) (A) (A) (A) (A) (A) (A) (A) (A) (A) (A) (A)
                 (A) (A) (A) (A) (A) (A) (A) (A) (A) (A) (A) (A)
                 (A) (A) (A) (A) (A) (A) (A) (A) (A) (A) (A) (A)
                 (A) (A) (A) (A) (A) (A) (A) (A) (A) (A) (A) (A)
                 (A) (A) (A) (A) (A) (A) (A) (A) (A) (A) (A) (A)
                 (A) (A) (A) (A) (A) (A) (A) (A) (A) (A) (A) (A)
                 (A) (A) (A) (A) (A) (A) (A) (A) (A) (A) (A) (A)
                 (A) (A) (A) (A) (A) (A) (A) (A) (A) (A) (A) (A)
                 (A) (A) (A) (A) (A) (A) (A) (A) (A) (A) (A) (A)
                 (A) (A) (A) (A) (A) (A) (A) (A) (A) (A) (A) (A)
                 (A) (A) (A) (A) (A) (A) (A) (A) (A) (A) (A) (A)
                 (A) (A) (A) (A) (A) (A) (A) (A) (A) (A) (A) (A)
                 (A) (A) (A) (A) (A) (A) (A) (A) (A) (A) (A) (A)
                 (A) (A) (A) (A) (A) (A) (A) (A) (A) (A) (A) (A)
                 (A) (A) (A) (A) (A) (A) (A) (A) (A) (A) (A) (A)
                 (A) (A) (A) (A) (A) (A) (A) (A) (A) (A) (A) (A)
                 (A) (A) (A) (A) (A) (A) (A) (A) (A) (A) (A) (A)
                 (A) (A) (A) (A) (A) (A) (A) (A) (A) (A) (A) (A)
                 (A) (A) (A) (A) (A) (A) (A) (A) (A) (A) (A) (A)
                 (A) (A) (A) (A) (A) (A) (A) (A) (A) (A) (A) (A)
                 (A) (A) (A) (A) (A) (A) (A) (A) (A) (A) (A) (A)
                 (A) (A) (A) (A) (A) (A) (A) (A) (A) (A) (A) (A)
                 (A) (A) (A) (A) (A) (A) (A) (A) (A) (A) (A) (A)
                 (A) (A) (A) (A) (A) (A) (A) (A) (A) (A) (A) (A)
                 (A) (A) (A) (A) (A) (A) (A) (A) (A) (A) (A) (A)
                 (A) (A) (A) (A) (A) (A) (A) (A) (A) (A) (A) (A)
                 (A) (A) (A) (A) (A) (A) (A) (A) (A) (A) (A) (A)
                 (A) (A) (A) (A) (A) (A) (A) (A) (A) (A) (A) (A)
                 (A) (A) (A) (A) (A) (A) (A) (A) (A) (A) (A) (A)
                 (A) (A) (A) (A) (A) (A) (A) (A) (A) (A) (A) (A)
                 (A) (A) (A) (A) (A) (A) (A) (A) (A) (A) (A) (A)
                 (A) (A) (A) (A) (A) (A) (A) (A) (A) (A) (A) (A)
                 (A) (A) (A) (A) (A) (A) (A) (A) (A) (A) (A) (A)
                 (A) (A) (A) (A) (A) (A) (A) (A) (A) (A) (A) (A)
                 (A) (A) (A) (A) (A) (A) (A) (A) (A) (A) (A) (A)
                 (A) (A) (A) (A) (A) (A) (A) (A) (A) (A) (A) (A)
                 (A) (A) (A) (A) (A) (A) (A) (A) (A) (A) (A) (A)
                 (A) (A) (A) (A) (A) (A) (A) (A) (A) (A) (A) (A)
                 (A) (A) (A) (A) (A) (A) (A) (A) (A) (A) (A) (A)
                 (A) (A) (A) (A) (A) (A) (A) (A) (A) (A) (A) (A)
                 (A) (A) (A) (A) (A) (A) (A) (A) (A) (A) (A) (A)
                 (A) (A) (A) (A) (A) (A) (A) (A) (A) (A) (A) (A)
                 (A) (A) (A) (A) (A) (A) (A) (A) (A) (A) (A) (A)
                 (A) (A) (A) (A) (A) (A) (A) (A) (A) (A) (A) (A)
                 (A) (A) (A) (A) (A) (A) (A) (A) (A) (A) (A) (A)
                 (A) (A) (A) (A) (A) (A) (A) (A) (A) (A) (A) (A)
                 (A) (A) (A) (A) (A) (A) (A) (A) (A) (A) (A) (A)
                 (A) (A) (A) (A) (A) (A) (A) (A) (A) (A) (A) (A)
                 (A) (A) (A) (A) (A) (A) (A) (A) (A) (A) (A) (A)
                 (A) (A) (A) (A) (A) (A) (A) (A) (A) (A) (A) (A)
                 (A) (A) (A) (A) (A) (A) (A) (A) (A) (A) (A) (A)
                 (A) (A) (A) (A) (A) (A) (A) (A) (A) (A) (A) (A)
                 (A) (A) (A) (A) (A) (A) (A) (A) (A) (A) (A) (A)
                 (A) (A) (A) (A) (A) (A) (A) (A) (A) (A) (A) (A)
                 (A) (A) (A) (A) (A) (A) (A) (A) (A) (A) (A) (A)
                 (A) (A) (A) (A) (A) (A) (A) (A) (A) (A) (A) (A)
                 (A) (A) (A) (A) (A) (A) (A) (A) (A) (A) (A) (A)
                 (A) (A) (A) (A) (A) (A) (A) (A) (A) (A) (A) (A)
                 (A) (A) (A) (A) (A) (A) (A) (A) (A) (A) (A) (A)
                 (A) (A) (A) (A) (A) (A) (A) (A) (A) (A) (A) (A)
                 (A) (A) (A) (A) (A) (A) (A) (A) (A) (A) (A) (A)
                 (A) (A) (A) (A) (A) (A) (A) (A) (A) (A) (A) (A)
                 (A) (A) (A) (A) (A) (A) (A) (A) (A) (A) (A) (A)
                 (A) (A) (A) (A) (A) (A) (A) (A) (A) (A) (A) (A)
                 (A) (A) (A) (A) (A) (A) (A) (A) (A) (A) (A) (A)
                 (A) (A) (A) (A) (A) (A) (A) (A) (A) (A) (A) (A)
                 (A) (A) (A) (A) (A) (A) (A) (A) (A) (A) (A) (A)
                 (A) (A) (A) (A) (A) (A) (A) (A) (A) (A) (A) (A)
                 (A) (A) (A) (A) (A) (A) (A) (A) (A) (A) (A) (A)
                 (A) (A) (A) (A) (A) (A) (A) (A) (A) (A) (A) (A)
                 (A) (A) (A) (A) (A) (A) (A) (A) (A) (A) (A) (A)
                 (A) (A) (A) (A) (A) (A) (A) (A) (A) (A) (A) (A)
                 (A) (A) (A) (A) (A) (A) (A) (A) (A) (A) (A) (A)
                 (A) (A) (A) (A) (A) (A) (A) (A) (A) (A) (A) (A)
                 (A) (A) (A) (A) (A) (A) (A) (A) (A) (A) (A) (A)
                 (A) (A) (A) (A) (A) (A) (A) (A) (A) (A) (A) (A)
                 (A) (A) (A) (A) (A) (A) (A) (A) (A) (A) (A) (A)
                 (A) (A) (A) (A) (A) (A) (A) (A) (A) (A) (A) (A)
                 (A) (A) (A) (A) (A) (A) (A) (A) (A) (A) (A) (A)
                 (A) (A) (A) (A) (A) (A) (A) (A) (A) (A) (A) (A)
                 (A) (A) (A) (A) (A) (A) (A) (A) (A) (A) (A) (A)
                 (A) (A) (A) (A) (A) (A) (A) (A) (A) (A) (A) (A)
                 (A) (A) (A) (A) (A) (A) (A) (A) (A) (A) (A) (A)
                 (A) (A) (A) (A) (A) (A) (A) (A) (A) (A) (A) (A)
                 (A) (A) (A) (A) (A) (A) (A) (A) (A) (A) (A) (A)
                 (A) (A) (A) (A) (A) (A) (A) (A) (A) (A) (A) (A)
                 (A) (A) (A) (A) (A) (A) (A) (A) (A) (A) (A) (A)
                 (A) (A) (A) (A) (A) (A) (A) (A) (A) (A) (A) (A)
                 (A) (A) (A) (A) (A) (A) (A) (A) (A) (A) (A) (A)
                 (A) (A) (A) (A) (A) (A) (A) (A) (A) (A) (A) (A)
 Beta  Orbitals:
       Occupied  (A) (A) (A) (A) (A) (A) (A) (A) (A) (A) (A) (A)
                 (A) (A) (A) (A) (A) (A) (A) (A) (A) (A) (A) (A)
                 (A) (A) (A) (A) (A) (A) (A) (A) (A) (A) (A) (A)
                 (A) (A) (A) (A) (A) (A) (A) (A) (A) (A) (A) (A)
                 (A) (A) (A) (A) (A) (A) (A) (A) (A) (A) (A) (A)
                 (A) (A) (A) (A) (A) (A) (A) (A) (A) (A) (A) (A)
                 (A) (A) (A) (A) (A) (A) (A) (A) (A) (A) (A) (A)
                 (A) (A) (A) (A) (A) (A) (A) (A) (A) (A) (A) (A)
                 (A) (A) (A) (A) (A) (A) (A) (A) (A) (A) (A) (A)
                 (A) (A) (A) (A) (A) (A) (A) (A) (A) (A) (A) (A)
                 (A) (A) (A) (A) (A) (A) (A) (A) (A) (A) (A) (A)
                 (A) (A) (A) (A) (A) (A) (A) (A) (A) (A) (A) (A)
                 (A) (A) (A) (A) (A) (A) (A) (A) (A) (A) (A) (A)
                 (A) (A) (A) (A) (A) (A) (A) (A) (A) (A) (A) (A)
                 (A) (A) (A) (A) (A) (A) (A) (A) (A) (A) (A) (A)
                 (A) (A) (A) (A) (A) (A) (A) (A) (A) (A) (A) (A)
                 (A) (A) (A) (A) (A) (A) (A) (A) (A) (A) (A) (A)
                 (A) (A) (A) (A) (A) (A) (A) (A) (A) (A) (A) (A)
                 (A) (A) (A) (A)
       Virtual   (A) (A) (A) (A) (A) (A) (A) (A) (A) (A) (A) (A)
                 (A) (A) (A) (A) (A) (A) (A) (A) (A) (A) (A) (A)
                 (A) (A) (A) (A) (A) (A) (A) (A) (A) (A) (A) (A)
                 (A) (A) (A) (A) (A) (A) (A) (A) (A) (A) (A) (A)
                 (A) (A) (A) (A) (A) (A) (A) (A) (A) (A) (A) (A)
                 (A) (A) (A) (A) (A) (A) (A) (A) (A) (A) (A) (A)
                 (A) (A) (A) (A) (A) (A) (A) (A) (A) (A) (A) (A)
                 (A) (A) (A) (A) (A) (A) (A) (A) (A) (A) (A) (A)
                 (A) (A) (A) (A) (A) (A) (A) (A) (A) (A) (A) (A)
                 (A) (A) (A) (A) (A) (A) (A) (A) (A) (A) (A) (A)
                 (A) (A) (A) (A) (A) (A) (A) (A) (A) (A) (A) (A)
                 (A) (A) (A) (A) (A) (A) (A) (A) (A) (A) (A) (A)
                 (A) (A) (A) (A) (A) (A) (A) (A) (A) (A) (A) (A)
                 (A) (A) (A) (A) (A) (A) (A) (A) (A) (A) (A) (A)
                 (A) (A) (A) (A) (A) (A) (A) (A) (A) (A) (A) (A)
                 (A) (A) (A) (A) (A) (A) (A) (A) (A) (A) (A) (A)
                 (A) (A) (A) (A) (A) (A) (A) (A) (A) (A) (A) (A)
                 (A) (A) (A) (A) (A) (A) (A) (A) (A) (A) (A) (A)
                 (A) (A) (A) (A) (A) (A) (A) (A) (A) (A) (A) (A)
                 (A) (A) (A) (A) (A) (A) (A) (A) (A) (A) (A) (A)
                 (A) (A) (A) (A) (A) (A) (A) (A) (A) (A) (A) (A)
                 (A) (A) (A) (A) (A) (A) (A) (A) (A) (A) (A) (A)
                 (A) (A) (A) (A) (A) (A) (A) (A) (A) (A) (A) (A)
                 (A) (A) (A) (A) (A) (A) (A) (A) (A) (A) (A) (A)
                 (A) (A) (A) (A) (A) (A) (A) (A) (A) (A) (A) (A)
                 (A) (A) (A) (A) (A) (A) (A) (A) (A) (A) (A) (A)
                 (A) (A) (A) (A) (A) (A) (A) (A) (A) (A) (A) (A)
                 (A) (A) (A) (A) (A) (A) (A) (A) (A) (A) (A) (A)
                 (A) (A) (A) (A) (A) (A) (A) (A) (A) (A) (A) (A)
                 (A) (A) (A) (A) (A) (A) (A) (A) (A) (A) (A) (A)
                 (A) (A) (A) (A) (A) (A) (A) (A) (A) (A) (A) (A)
                 (A) (A) (A) (A) (A) (A) (A) (A) (A) (A) (A) (A)
                 (A) (A) (A) (A) (A) (A) (A) (A) (A) (A) (A) (A)
                 (A) (A) (A) (A) (A) (A) (A) (A) (A) (A) (A) (A)
                 (A) (A) (A) (A) (A) (A) (A) (A) (A) (A) (A) (A)
                 (A) (A) (A) (A) (A) (A) (A) (A) (A) (A) (A) (A)
                 (A) (A) (A) (A) (A) (A) (A) (A) (A) (A) (A) (A)
                 (A) (A) (A) (A) (A) (A) (A) (A) (A) (A) (A) (A)
                 (A) (A) (A) (A) (A) (A) (A) (A) (A) (A) (A) (A)
                 (A) (A) (A) (A) (A) (A) (A) (A) (A) (A) (A) (A)
                 (A) (A) (A) (A) (A) (A) (A) (A) (A) (A) (A) (A)
                 (A) (A) (A) (A) (A) (A) (A) (A) (A) (A) (A) (A)
                 (A) (A) (A) (A) (A) (A) (A) (A) (A) (A) (A) (A)
                 (A) (A) (A) (A) (A) (A) (A) (A) (A) (A) (A) (A)
                 (A) (A) (A) (A) (A) (A) (A) (A) (A) (A) (A) (A)
                 (A) (A) (A) (A) (A) (A) (A) (A) (A) (A) (A) (A)
                 (A) (A) (A) (A) (A) (A) (A) (A) (A) (A) (A) (A)
                 (A) (A) (A) (A) (A) (A) (A) (A) (A) (A) (A) (A)
                 (A) (A) (A) (A) (A) (A) (A) (A) (A) (A) (A) (A)
                 (A) (A) (A) (A) (A) (A) (A) (A) (A) (A) (A) (A)
                 (A) (A) (A) (A) (A) (A) (A) (A) (A) (A) (A) (A)
                 (A) (A) (A) (A) (A) (A) (A) (A) (A) (A) (A) (A)
                 (A) (A) (A) (A) (A) (A) (A) (A) (A) (A) (A) (A)
                 (A) (A) (A) (A) (A) (A) (A) (A) (A) (A) (A) (A)
                 (A) (A) (A) (A) (A) (A) (A) (A) (A) (A) (A) (A)
                 (A) (A) (A) (A) (A) (A) (A) (A) (A) (A) (A) (A)
                 (A) (A) (A) (A) (A) (A) (A) (A) (A) (A) (A) (A)
                 (A) (A) (A) (A) (A) (A) (A) (A) (A) (A) (A) (A)
                 (A) (A) (A) (A) (A) (A) (A) (A) (A) (A) (A) (A)
                 (A) (A) (A) (A) (A) (A) (A) (A) (A) (A) (A) (A)
                 (A) (A) (A) (A) (A) (A) (A) (A) (A) (A) (A) (A)
                 (A) (A) (A) (A) (A) (A) (A) (A) (A) (A) (A) (A)
                 (A) (A) (A) (A) (A) (A) (A) (A) (A) (A) (A) (A)
                 (A) (A) (A) (A) (A) (A) (A) (A) (A) (A) (A) (A)
                 (A) (A) (A) (A) (A) (A) (A) (A) (A) (A) (A) (A)
                 (A) (A) (A) (A) (A) (A) (A) (A) (A) (A) (A) (A)
                 (A) (A) (A) (A) (A) (A) (A) (A) (A) (A) (A) (A)
                 (A) (A) (A) (A) (A) (A) (A) (A) (A) (A) (A) (A)
                 (A) (A) (A) (A) (A) (A) (A) (A) (A) (A) (A) (A)
                 (A) (A) (A) (A) (A) (A) (A) (A) (A) (A) (A) (A)
                 (A) (A) (A) (A) (A) (A) (A) (A) (A) (A) (A) (A)
                 (A) (A) (A) (A) (A) (A) (A) (A) (A) (A) (A) (A)
                 (A) (A) (A) (A) (A) (A) (A) (A) (A) (A) (A) (A)
                 (A) (A) (A) (A) (A) (A) (A) (A) (A) (A) (A) (A)
                 (A) (A) (A) (A) (A) (A) (A) (A) (A) (A) (A) (A)
                 (A) (A) (A) (A) (A) (A) (A) (A) (A) (A) (A) (A)
                 (A) (A) (A) (A) (A) (A) (A) (A) (A) (A) (A) (A)
                 (A) (A) (A) (A) (A) (A) (A) (A) (A) (A) (A) (A)
                 (A) (A) (A) (A) (A) (A) (A) (A) (A) (A) (A) (A)
                 (A) (A) (A) (A) (A) (A) (A) (A) (A) (A) (A) (A)
                 (A) (A) (A) (A) (A) (A) (A) (A) (A) (A) (A) (A)
                 (A) (A) (A) (A) (A) (A) (A) (A) (A) (A) (A) (A)
                 (A) (A) (A) (A) (A) (A) (A) (A) (A) (A) (A) (A)
                 (A) (A) (A) (A) (A) (A) (A) (A) (A) (A) (A) (A)
                 (A) (A) (A) (A) (A) (A) (A) (A) (A) (A) (A) (A)
                 (A) (A) (A) (A) (A) (A) (A) (A) (A) (A) (A) (A)
                 (A) (A) (A) (A) (A) (A) (A) (A) (A) (A) (A) (A)
                 (A) (A) (A) (A) (A) (A) (A) (A) (A) (A) (A) (A)
                 (A) (A) (A) (A) (A) (A) (A) (A) (A) (A) (A) (A)
                 (A) (A) (A) (A) (A) (A) (A) (A) (A) (A) (A) (A)
                 (A) (A) (A) (A) (A) (A) (A) (A) (A) (A) (A) (A)
                 (A) (A) (A) (A) (A) (A) (A) (A) (A) (A) (A) (A)
                 (A) (A) (A) (A) (A) (A) (A) (A) (A) (A) (A) (A)
                 (A) (A) (A) (A) (A) (A) (A) (A) (A) (A) (A) (A)
                 (A) (A) (A) (A) (A) (A) (A) (A) (A) (A) (A) (A)
                 (A) (A) (A) (A) (A) (A) (A) (A) (A) (A) (A) (A)
                 (A) (A) (A) (A) (A) (A) (A) (A) (A) (A) (A) (A)
                 (A) (A) (A) (A) (A) (A) (A) (A) (A) (A) (A) (A)
                 (A) (A) (A) (A) (A) (A) (A) (A) (A) (A) (A) (A)
                 (A) (A) (A) (A) (A) (A) (A) (A) (A) (A) (A) (A)
                 (A) (A) (A) (A) (A) (A) (A) (A) (A) (A) (A) (A)
                 (A) (A) (A) (A) (A) (A) (A) (A) (A) (A) (A) (A)
                 (A) (A) (A) (A) (A) (A) (A) (A) (A) (A) (A) (A)
                 (A) (A) (A) (A) (A) (A) (A) (A) (A) (A) (A) (A)
                 (A) (A) (A) (A) (A) (A) (A) (A) (A) (A) (A) (A)
                 (A) (A) (A) (A) (A) (A) (A) (A) (A) (A) (A) (A)
                 (A) (A) (A) (A) (A) (A) (A) (A) (A) (A) (A) (A)
                 (A) (A) (A) (A) (A) (A) (A) (A) (A) (A) (A) (A)
                 (A) (A) (A) (A) (A) (A) (A) (A) (A) (A) (A) (A)
[...]
              Bcc     0.0084     1.133     0.404     0.378  0.9566 -0.1816 -0.2281
 
              Baa    -0.0130    -1.747    -0.624    -0.583  0.1511  0.3080  0.9393
    25 C(13)  Bbb    -0.0093    -1.246    -0.445    -0.416  0.9293 -0.3683 -0.0288
              Bcc     0.0223     2.994     1.068     0.999  0.3370  0.8772 -0.3418
 
              Baa    -0.0019    -0.074    -0.026    -0.025  0.1291  0.2480  0.9601
    26 N(14)  Bbb    -0.0007    -0.027    -0.010    -0.009  0.9251 -0.3787 -0.0266
              Bcc     0.0026     0.102     0.036     0.034  0.3570  0.8917 -0.2784
 
              Baa    -0.0147     1.067     0.381     0.356  0.3513  0.0495  0.9350
    27 O(17)  Bbb    -0.0139     1.008     0.360     0.336  0.8121 -0.5131 -0.2780
              Bcc     0.0287    -2.075    -0.740    -0.692  0.4659  0.8569 -0.2204
 
              Baa    -0.0148     1.070     0.382     0.357 -0.1614  0.2553  0.9533
    28 O(17)  Bbb    -0.0140     1.010     0.360     0.337  0.9578 -0.1923  0.2137
              Bcc     0.0287    -2.079    -0.742    -0.694  0.2379  0.9475 -0.2135
 
              Baa    -0.0094    -1.267    -0.452    -0.423  0.5569  0.7890 -0.2594
    29 C(13)  Bbb     0.0010     0.130     0.046     0.043  0.0015  0.3114  0.9503
              Bcc     0.0085     1.137     0.406     0.379  0.8306 -0.5296  0.1723
 
              Baa    -0.0158    -2.122    -0.757    -0.708 -0.3952  0.3111  0.8643
    30 C(13)  Bbb    -0.0085    -1.147    -0.409    -0.383 -0.4750  0.7361 -0.4822
              Bcc     0.0244     3.269     1.167     1.090  0.7862  0.6011  0.1431
 
              Baa    -0.0967   -12.976    -4.630    -4.328  0.0587 -0.0421  0.9974
    31 C(13)  Bbb     0.0417     5.602     1.999     1.869  0.9701  0.2382 -0.0471
              Bcc     0.0550     7.374     2.631     2.460 -0.2356  0.9703  0.0548
 
              Baa    -0.0801   -10.746    -3.834    -3.584  0.8556 -0.5095 -0.0919
    32 C(13)  Bbb    -0.0781   -10.479    -3.739    -3.495  0.5099  0.8600 -0.0204
              Bcc     0.1582    21.225     7.573     7.080  0.0894 -0.0294  0.9956
 
              Baa    -0.0016    -0.211    -0.075    -0.070 -0.4280  0.8589  0.2814
    33 C(13)  Bbb    -0.0003    -0.042    -0.015    -0.014  0.3495 -0.1299  0.9279
              Bcc     0.0019     0.254     0.091     0.085  0.8335  0.4955 -0.2445
 
              Baa    -0.0667    -8.947    -3.192    -2.984  0.0161 -0.0725  0.9972
    34 C(13)  Bbb     0.0324     4.342     1.549     1.448  0.3775  0.9240  0.0611
              Bcc     0.0343     4.604     1.643     1.536  0.9259 -0.3755 -0.0423
 
              Baa    -0.0031    -0.335    -0.120    -0.112  0.0576 -0.0587  0.9966
    35 I(127) Bbb     0.0006     0.069     0.025     0.023  0.8508 -0.5194 -0.0798
              Bcc     0.0025     0.266     0.095     0.089  0.5223  0.8525  0.0201
 
              Baa    -0.0909   -12.200    -4.353    -4.069  0.8014  0.5981 -0.0022
    36 C(13)  Bbb    -0.0881   -11.825    -4.219    -3.944 -0.5969  0.8001  0.0601
              Bcc     0.1790    24.025     8.573     8.014  0.0377 -0.0468  0.9982
 
              Baa    -0.0630    -8.451    -3.015    -2.819  0.1098  0.0751  0.9911
    37 C(13)  Bbb     0.0258     3.456     1.233     1.153  0.7862  0.6036 -0.1329
              Bcc     0.0372     4.995     1.782     1.666 -0.6082  0.7938  0.0072
 
              Baa    -0.0733    -9.840    -3.511    -3.282  0.0067  0.9851 -0.1720
    38 C(13)  Bbb    -0.0686    -9.212    -3.287    -3.073  0.9880 -0.0330 -0.1507
              Bcc     0.1420    19.052     6.798     6.355  0.1541  0.1689  0.9735
 
              Baa    -0.0248    -3.332    -1.189    -1.112  0.2496  0.4224  0.8714
    39 C(13)  Bbb     0.0101     1.354     0.483     0.452  0.2252  0.8499 -0.4764
              Bcc     0.0147     1.978     0.706     0.660  0.9418 -0.3152 -0.1170
 
              Baa    -0.0148    -1.985    -0.708    -0.662  0.7007  0.4699 -0.5369
    40 C(13)  Bbb    -0.0126    -1.687    -0.602    -0.563  0.7029 -0.5840  0.4062
              Bcc     0.0274     3.672     1.310     1.225  0.1227  0.6619  0.7394
 
              Baa    -0.0127    -1.707    -0.609    -0.569  0.0888  0.5349  0.8402
    41 C(13)  Bbb     0.0055     0.739     0.264     0.247  0.6443  0.6125 -0.4580
              Bcc     0.0072     0.968     0.345     0.323  0.7596 -0.5821  0.2903
 
              Baa    -0.0136     0.981     0.350     0.327  0.0902  0.5723  0.8151
    42 O(17)  Bbb     0.0055    -0.401    -0.143    -0.134  0.9436  0.2127 -0.2537
              Bcc     0.0080    -0.580    -0.207    -0.194 -0.3186  0.7920 -0.5208
 
              Baa    -0.0005    -0.069    -0.025    -0.023  0.9686  0.0960 -0.2293
    43 C(13)  Bbb    -0.0001    -0.018    -0.006    -0.006  0.1651  0.4409  0.8822
              Bcc     0.0007     0.087     0.031     0.029 -0.1857  0.8924 -0.4112
 
              Baa    -0.0143    -1.924    -0.686    -0.642  0.8522  0.3742 -0.3657
    44 C(13)  Bbb    -0.0128    -1.714    -0.611    -0.572 -0.5037  0.7759 -0.3799
              Bcc     0.0271     3.637     1.298     1.213  0.1416  0.5079  0.8497
 
              Baa    -0.0160     1.158     0.413     0.386 -0.5640  0.7278 -0.3901
    45 O(17)  Bbb    -0.0133     0.963     0.344     0.321  0.8150  0.4145 -0.4050
              Bcc     0.0293    -2.122    -0.757    -0.708  0.1331  0.5463  0.8269
 
              Baa    -0.0005    -0.068    -0.024    -0.023  0.1688  0.3317  0.9282
    46 C(13)  Bbb    -0.0002    -0.021    -0.007    -0.007  0.2096  0.9081 -0.3626
              Bcc     0.0007     0.089     0.032     0.030  0.9631 -0.2557 -0.0838
 
              Baa    -0.0028    -0.381    -0.136    -0.127 -0.3516  0.4680  0.8108
    47 C(13)  Bbb     0.0007     0.096     0.034     0.032  0.6973  0.7088 -0.1068
              Bcc     0.0021     0.285     0.102     0.095  0.6246 -0.5278  0.5756
 
              Baa    -0.0203    -2.721    -0.971    -0.908  0.6591  0.4375 -0.6117
    48 C(13)  Bbb    -0.0193    -2.596    -0.926    -0.866  0.6967 -0.6615  0.2776
              Bcc     0.0396     5.317     1.897     1.774  0.2831  0.6091  0.7408
 
              Baa    -0.0027    -0.104    -0.037    -0.035  0.4922 -0.2734  0.8264
    49 N(14)  Bbb    -0.0020    -0.077    -0.028    -0.026  0.6497  0.7472 -0.1398
              Bcc     0.0047     0.182     0.065     0.061 -0.5793  0.6057  0.5454
 
              Baa    -0.0171     1.234     0.440     0.412  0.2579  0.8929 -0.3691
    50 O(17)  Bbb    -0.0148     1.071     0.382     0.357  0.8650 -0.0432  0.4999
              Bcc     0.0319    -2.306    -0.823    -0.769 -0.4304  0.4482  0.7835
 
              Baa    -0.0262     1.899     0.678     0.633  0.7485 -0.1174  0.6527
    51 O(17)  Bbb    -0.0250     1.806     0.644     0.602  0.5167  0.7202 -0.4630
              Bcc     0.0512    -3.705    -1.322    -1.236 -0.4157  0.6838  0.5997
 
              Baa    -0.0567    -2.187    -0.780    -0.729  0.3328  0.9412  0.0588
    52 N(14)  Bbb    -0.0464    -1.788    -0.638    -0.596  0.9396 -0.3256 -0.1061
              Bcc     0.1031     3.975     1.418     1.326  0.0807 -0.0905  0.9926
 
              Baa    -0.0025    -0.432    -0.154    -0.144  0.1866 -0.0008  0.9824
    53 B(11)  Bbb     0.0009     0.162     0.058     0.054 -0.6017  0.7904  0.1150
              Bcc     0.0016     0.270     0.096     0.090  0.7766  0.6126 -0.1470
 
              Baa    -0.0155    -7.780    -2.776    -2.595  0.3114  0.9418  0.1265
    54 F(19)  Bbb    -0.0125    -6.288    -2.244    -2.097 -0.3056 -0.0268  0.9518
              Bcc     0.0280    14.068     5.020     4.693  0.8998 -0.3351  0.2795
 
              Baa    -0.0090    -4.544    -1.621    -1.516  0.3999 -0.1419  0.9055
    55 F(19)  Bbb    -0.0068    -3.415    -1.218    -1.139  0.5007  0.8613 -0.0861
              Bcc     0.0158     7.958     2.840     2.655  0.7677 -0.4878 -0.4155
 
              Baa    -0.0547    -2.110    -0.753    -0.704  0.4626  0.8855  0.0444
    56 N(14)  Bbb    -0.0447    -1.723    -0.615    -0.575  0.8827 -0.4646  0.0700
              Bcc     0.0994     3.834     1.368     1.279 -0.0826 -0.0069  0.9966
 
              Baa    -0.0131    -1.764    -0.629    -0.588 -0.2743  0.9528  0.1302
    57 C(13)  Bbb    -0.0111    -1.490    -0.532    -0.497  0.9211  0.2992 -0.2491
              Bcc     0.0242     3.254     1.161     1.085  0.2763 -0.0516  0.9597
 
              Baa    -0.0003    -0.183    -0.065    -0.061 -0.0921  0.1212  0.9883
    58 H(1)   Bbb    -0.0003    -0.171    -0.061    -0.057  0.8234 -0.5489  0.1440
              Bcc     0.0007     0.355     0.127     0.118  0.5600  0.8270 -0.0492
 
              Baa    -0.0002    -0.091    -0.032    -0.030 -0.4518  0.4574  0.7660
    59 H(1)   Bbb    -0.0002    -0.088    -0.031    -0.029  0.4845 -0.5952  0.6411
              Bcc     0.0003     0.179     0.064     0.060  0.7491  0.6608  0.0473
 
              Baa    -0.0004    -0.191    -0.068    -0.064 -0.3398 -0.0586  0.9387
    60 H(1)   Bbb    -0.0003    -0.163    -0.058    -0.054  0.7276 -0.6488  0.2228
              Bcc     0.0007     0.353     0.126     0.118  0.5960  0.7587  0.2631
 
              Baa    -0.0004    -0.204    -0.073    -0.068  0.2889 -0.4319  0.8544
    61 H(1)   Bbb    -0.0002    -0.085    -0.030    -0.028  0.3921  0.8676  0.3060
              Bcc     0.0005     0.289     0.103     0.096  0.8734 -0.2466 -0.4200
 
              Baa    -0.0004    -0.197    -0.070    -0.066 -0.0034  0.0244  0.9997
    62 H(1)   Bbb    -0.0002    -0.085    -0.030    -0.028  0.3376  0.9410 -0.0218
              Bcc     0.0005     0.282     0.100     0.094  0.9413 -0.3375  0.0115
 
              Baa    -0.0002    -0.129    -0.046    -0.043  0.1439 -0.3778  0.9146
    63 H(1)   Bbb    -0.0002    -0.117    -0.042    -0.039  0.1649  0.9205  0.3543
              Bcc     0.0005     0.246     0.088     0.082  0.9758 -0.0998 -0.1947
 
              Baa    -0.0008    -0.410    -0.146    -0.137  0.1375 -0.0586  0.9888
    64 H(1)   Bbb     0.0002     0.118     0.042     0.039 -0.5323  0.8375  0.1237
              Bcc     0.0005     0.293     0.104     0.098  0.8353  0.5433 -0.0839
 
              Baa    -0.0060    -3.226    -1.151    -1.076  0.9621  0.2140  0.1690
    65 H(1)   Bbb    -0.0018    -0.972    -0.347    -0.324 -0.0739 -0.3919  0.9170
              Bcc     0.0079     4.198     1.498     1.400 -0.2624  0.8948  0.3612
 
              Baa    -0.0031    -1.651    -0.589    -0.551  0.0207  0.9996  0.0187
    66 H(1)   Bbb    -0.0024    -1.299    -0.464    -0.433 -0.0478 -0.0177  0.9987
              Bcc     0.0055     2.950     1.053     0.984  0.9986 -0.0216  0.0474
 
              Baa    -0.0027    -1.417    -0.506    -0.473 -0.2383  0.1873  0.9530
    67 H(1)   Bbb    -0.0005    -0.267    -0.095    -0.089  0.8057  0.5860  0.0862
              Bcc     0.0032     1.684     0.601     0.562 -0.5423  0.7883 -0.2906
 
              Baa    -0.0018    -0.970    -0.346    -0.323 -0.4194  0.0404  0.9069
    68 H(1)   Bbb    -0.0014    -0.726    -0.259    -0.242  0.8802  0.2627  0.3953
              Bcc     0.0032     1.695     0.605     0.566 -0.2223  0.9640 -0.1457
 
              Baa    -0.0023    -1.204    -0.430    -0.402  0.3060 -0.1713  0.9365
    69 H(1)   Bbb    -0.0009    -0.478    -0.171    -0.160  0.7768  0.6137 -0.1415
              Bcc     0.0032     1.683     0.600     0.561 -0.5505  0.7707  0.3209
 
              Baa    -0.0032    -1.725    -0.616    -0.575  0.0827  0.8494 -0.5212
    70 H(1)   Bbb    -0.0010    -0.523    -0.187    -0.174  0.9572  0.0779  0.2789
              Bcc     0.0042     2.248     0.802     0.750 -0.2775  0.5219  0.8066
 
              Baa    -0.0010    -0.549    -0.196    -0.183  0.2305  0.8303 -0.5074
    71 H(1)   Bbb    -0.0005    -0.245    -0.087    -0.082  0.4432  0.3746  0.8144
              Bcc     0.0015     0.794     0.283     0.265  0.8663 -0.4126 -0.2817
 
              Baa    -0.0010    -0.551    -0.197    -0.184  0.3718  0.7735 -0.5132
    72 H(1)   Bbb    -0.0005    -0.245    -0.087    -0.082 -0.0251  0.5610  0.8274
              Bcc     0.0015     0.796     0.284     0.266  0.9280 -0.2948  0.2280
 
              Baa    -0.0033    -1.744    -0.622    -0.582  0.4913  0.6852 -0.5376
    73 H(1)   Bbb    -0.0010    -0.520    -0.186    -0.174 -0.6323  0.7051  0.3208
              Bcc     0.0042     2.264     0.808     0.755  0.5989  0.1823  0.7798
 
              Baa    -0.0022    -1.176    -0.420    -0.392 -0.3176  0.0675  0.9458
    74 H(1)   Bbb    -0.0009    -0.461    -0.164    -0.154 -0.1591  0.9795 -0.1233
              Bcc     0.0031     1.637     0.584     0.546  0.9348  0.1896  0.3003
 
              Baa    -0.0026    -1.389    -0.496    -0.463  0.3230 -0.0320  0.9459
    75 H(1)   Bbb    -0.0005    -0.278    -0.099    -0.093 -0.1903  0.9768  0.0981
              Bcc     0.0031     1.667     0.595     0.556  0.9271  0.2117 -0.3094
 
              Baa    -0.0018    -0.941    -0.336    -0.314  0.3837 -0.3257  0.8641
    76 H(1)   Bbb    -0.0014    -0.729    -0.260    -0.243 -0.4282  0.7663  0.4790
              Bcc     0.0031     1.671     0.596     0.557  0.8182  0.5538 -0.1546
 
              Baa    -0.0036    -1.913    -0.683    -0.638  0.6793  0.6580  0.3248
    77 H(1)   Bbb    -0.0024    -1.300    -0.464    -0.434 -0.1796 -0.2801  0.9430
              Bcc     0.0060     3.214     1.147     1.072  0.7115 -0.6990 -0.0721
 
              Baa    -0.0078    -4.159    -1.484    -1.387 -0.5901  0.8048 -0.0641
    78 H(1)   Bbb    -0.0018    -0.938    -0.335    -0.313  0.0867  0.1420  0.9861
              Bcc     0.0096     5.097     1.819     1.700  0.8027  0.5763 -0.1536
 
              Baa    -0.0015    -0.792    -0.283    -0.264  0.2277  0.2022  0.9525
    79 H(1)   Bbb    -0.0001    -0.058    -0.021    -0.019  0.7089 -0.7051 -0.0198
              Bcc     0.0016     0.850     0.303     0.283  0.6676  0.6797 -0.3038
 
              Baa    -0.0004    -0.208    -0.074    -0.069  0.7815  0.1840  0.5962
    80 H(1)   Bbb    -0.0003    -0.177    -0.063    -0.059 -0.6238  0.2156  0.7512
              Bcc     0.0007     0.385     0.137     0.128 -0.0097  0.9590 -0.2832
 
              Baa    -0.0004    -0.200    -0.071    -0.067  0.9491  0.2328  0.2121
    81 H(1)   Bbb    -0.0003    -0.186    -0.066    -0.062 -0.3058  0.5200  0.7976
              Bcc     0.0007     0.386     0.138     0.129 -0.0754  0.8219 -0.5647
 
              Baa    -0.0002    -0.098    -0.035    -0.033  0.9214  0.1197 -0.3697
    82 H(1)   Bbb    -0.0002    -0.092    -0.033    -0.031  0.2856  0.4363  0.8532
              Bcc     0.0004     0.191     0.068     0.064 -0.2634  0.8918 -0.3679
 
              Baa    -0.0004    -0.203    -0.072    -0.068  0.4217  0.4064  0.8106
    83 H(1)   Bbb    -0.0002    -0.110    -0.039    -0.037  0.1716  0.8420 -0.5114
              Bcc     0.0006     0.312     0.111     0.104  0.8903 -0.3548 -0.2854
 
              Baa    -0.0003    -0.150    -0.054    -0.050 -0.1236 -0.1626  0.9789
    84 H(1)   Bbb    -0.0002    -0.120    -0.043    -0.040  0.4071  0.8914  0.1994
              Bcc     0.0005     0.270     0.096     0.090  0.9050 -0.4231  0.0440
 
              Baa    -0.0004    -0.229    -0.082    -0.076 -0.0778  0.1768  0.9812
    85 H(1)   Bbb    -0.0001    -0.076    -0.027    -0.025  0.1553  0.9743 -0.1632
              Bcc     0.0006     0.305     0.109     0.102  0.9848 -0.1397  0.1032
 
              Baa    -0.0007    -0.388    -0.138    -0.129  0.2810  0.5406  0.7929
    86 H(1)   Bbb     0.0003     0.136     0.049     0.045  0.7466  0.3960 -0.5346
              Bcc     0.0005     0.251     0.090     0.084 -0.6031  0.7422 -0.2923
 
              Baa    -0.0013    -0.680    -0.243    -0.227  0.0085 -0.3794  0.9252
    87 H(1)   Bbb    -0.0000    -0.018    -0.007    -0.006  0.9878  0.1470  0.0511
              Bcc     0.0013     0.699     0.249     0.233 -0.1554  0.9135  0.3761
 

 ---------------------------------------------------------------------------------

 No NMR shielding tensors so no spin-rotation constants.
 Leave Link  601 at Sun Oct 12 09:24:15 2025, MaxMem= 30870077440 cpu:             264.3 elap:               4.7
 (Enter /work/home/accqbws0vm/apprepo/gaussian/16-hy/scripts/../app/g16/l9999.exe)
 1\1\GINC-G03R2N33\SP\UM062X\def2TZVPP\C37H30B1F2I2N5O10(1-,2)\ACCQBWS0
 VM\12-Oct-2025\0\\#p M062X/DEF2TZVPP scrf=(solvent=water) em=GD3\\Ener
 gy calculation for M100034928_reduced\\-1,2\C,0,6.160005,6.617673,-0.7
 54515\O,0,6.841749,5.419803,-0.357171\C,0,6.124862,4.273516,-0.259583\
 C,0,6.86776,3.12003,0.118174\O,0,8.198627,3.314207,0.334681\C,0,8.9805
 51,2.177495,0.718244\C,0,6.210348,1.910619,0.209876\C,0,4.828507,1.808
 705,-0.056763\N,0,4.331327,0.454458,-0.069372\O,0,4.938964,-0.410514,0
 .591038\O,0,3.347325,0.167619,-0.770275\C,0,4.038082,2.948867,-0.36971
 1\C,0,2.59086,3.109443,-0.498644\C,0,1.588027,2.300111,-0.062329\C,0,0
 .175705,2.570069,-0.087713\C,0,-0.591277,3.762832,-0.089712\I,0,0.1495
 45,5.723281,-0.028146\C,0,-1.954176,3.449012,-0.022119\C,0,-3.075138,4
 .436376,0.101576\C,0,-2.022205,2.017957,-0.026596\C,0,-3.136753,1.1340
 3,0.003294\C,0,-4.516023,1.68008,-0.042836\C,0,-5.008331,2.292715,-1.2
 11648\C,0,-6.29907,2.801583,-1.263145\C,0,-7.10387,2.707988,-0.123593\
 N,0,-8.451131,3.242192,-0.166088\O,0,-8.846673,3.774147,-1.213586\O,0,
 -9.159711,3.147785,0.846716\C,0,-6.644857,2.113525,1.055898\C,0,-5.356
 319,1.598041,1.084841\C,0,-2.927051,-0.270672,0.080864\C,0,-3.85264,-1
 .364698,0.046507\C,0,-5.342966,-1.325044,-0.107947\C,0,-3.074231,-2.52
 3152,0.144928\I,0,-3.893956,-4.447429,0.290445\C,0,-1.699822,-2.175194
 ,0.206138\C,0,-0.481596,-2.926753,0.293071\C,0,-0.292248,-4.267098,0.1
 39559\C,0,0.977611,-4.985476,0.135928\C,0,0.971963,-6.195893,-0.602933
 \C,0,2.113205,-6.944708,-0.84989\O,0,2.14686,-8.103862,-1.552597\C,0,0
 .9117,-8.627102,-2.06003\C,0,3.371014,-6.492656,-0.360159\O,0,4.443193
 ,-7.278162,-0.661196\C,0,5.72563,-6.861935,-0.178948\C,0,3.413955,-5.3
 34955,0.390747\C,0,2.238556,-4.607467,0.668006\N,0,2.420678,-3.52177,1
 .604625\O,0,3.533509,-2.966979,1.658355\O,0,1.492924,-3.205554,2.36657
 4\N,0,-1.644638,-0.788905,0.167294\B,0,-0.348109,0.027321,-0.023427\F,
 0,0.291289,-0.328595,-1.224901\F,0,0.54043,-0.237811,1.047907\N,0,-0.7
 28176,1.521712,-0.029207\C,0,4.760795,4.16524,-0.484356\H,0,5.388263,6
 .889768,-0.027461\H,0,6.925297,7.393586,-0.784055\H,0,5.712237,6.50348
 7,-1.746808\H,0,8.616667,1.747142,1.657464\H,0,8.974177,1.411329,-0.06
 4689\H,0,9.996044,2.550093,0.855758\H,0,6.750494,1.006249,0.448827\H,0
 ,2.320688,4.064999,-0.934731\H,0,1.834508,1.331377,0.346837\H,0,-3.841
 4,4.093316,0.799862\H,0,-2.692888,5.392586,0.467186\H,0,-3.571389,4.62
 8446,-0.856758\H,0,-4.374082,2.354835,-2.089479\H,0,-6.685239,3.258015
 ,-2.16568\H,0,-7.286295,2.065596,1.926694\H,0,-4.985293,1.137596,1.994
 244\H,0,-5.857862,-1.114712,0.836564\H,0,-5.654928,-0.561703,-0.823745
 \H,0,-5.706309,-2.290324,-0.469011\H,0,0.384241,-2.310889,0.486128\H,0
 ,-1.136172,-4.891966,-0.129169\H,0,0.027539,-6.519581,-1.022272\H,0,0.
 207922,-8.830814,-1.246712\H,0,0.458678,-7.937096,-2.77909\H,0,1.17278
 1,-9.559065,-2.561913\H,0,5.746297,-6.835477,0.915998\H,0,6.433579,-7.
 608866,-0.539372\H,0,5.996419,-5.877638,-0.576071\H,0,4.343652,-4.9872
 97,0.817612\H,0,4.197309,5.057531,-0.725858\\Version=ES64L-G16RevA.03\
 State=2-A\HF=-3273.8071216\S2=0.792614\S2-1=0.\S2A=0.751449\RMSD=7.035
 e-09\Dipole=2.3258249,-0.0203117,-1.5488996\Quadrupole=-33.5443948,34.
 563774,-1.0193791,34.4629902,-3.0660489,8.5499062\PG=C01 [X(C37H30B1F2
 I2N5O10)]\\@


 IT IS BETTER TO THINK YOU ARE HALF DRY THAN TO KNOW YOU
 ARE ALL WET.  -- SNOOPY
 Job cpu time:       2 days 10 hours 10 minutes 36.4 seconds.
 Elapsed time:       0 days  0 hours 55 minutes 15.2 seconds.
 File lengths (MBytes):  RWF=   5328 Int=      0 D2E=      0 Chk=    344 Scr=      1
 Normal termination of Gaussian 16 at Sun Oct 12 09:24:15 2025.
