 Entering Gaussian System, Link 0=g16
 Input=M100532471_sp.gjf
 Output=M100532471_sp.log
 Initial command:
 /public/software/gauss/g16/l1.exe "/public/home/baiding/1101_v2_sp/tmp_M100532471_sp_1575143/Gau-1479535.inp" -scrdir="/public/home/baiding/1101_v2_sp/tmp_M100532471_sp_1575143/"
 Entering Link 1 = /public/software/gauss/g16/l1.exe PID=   1479536.
  
 Copyright (c) 1988,1990,1992,1993,1995,1998,2003,2009,2016,
            Gaussian, Inc.  All Rights Reserved.
  
 This is part of the Gaussian(R) 16 program.  It is based on
 the Gaussian(R) 09 system (copyright 2009, Gaussian, Inc.),
 the Gaussian(R) 03 system (copyright 2003, Gaussian, Inc.),
 the Gaussian(R) 98 system (copyright 1998, Gaussian, Inc.),
 the Gaussian(R) 94 system (copyright 1995, Gaussian, Inc.),
 the Gaussian 92(TM) system (copyright 1992, Gaussian, Inc.),
 the Gaussian 90(TM) system (copyright 1990, Gaussian, Inc.),
 the Gaussian 88(TM) system (copyright 1988, Gaussian, Inc.),
 the Gaussian 86(TM) system (copyright 1986, Carnegie Mellon
 University), and the Gaussian 82(TM) system (copyright 1983,
 Carnegie Mellon University). Gaussian is a federally registered
 trademark of Gaussian, Inc.
  
 This software contains proprietary and confidential information,
 including trade secrets, belonging to Gaussian, Inc.
  
 This software is provided under written license and may be
 used, copied, transmitted, or stored only in accord with that
 written license.
  
 The following legend is applicable only to US Government
 contracts under FAR:
  
                    RESTRICTED RIGHTS LEGEND
  
 Use, reproduction and disclosure by the US Government is
 subject to restrictions as set forth in subparagraphs (a)
 and (c) of the Commercial Computer Software - Restricted
 Rights clause in FAR 52.227-19.
  
 Gaussian, Inc.
 340 Quinnipiac St., Bldg. 40, Wallingford CT 06492
  
  
 ---------------------------------------------------------------
 Warning -- This program may not be used in any manner that
 competes with the business of Gaussian, Inc. or will provide
 assistance to any competitor of Gaussian, Inc.  The licensee
 of this program is prohibited from giving any competitor of
 Gaussian, Inc. access to this program.  By using this program,
 the user acknowledges that Gaussian, Inc. is engaged in the
 business of creating and licensing software in the field of
 computational chemistry and represents and warrants to the
 licensee that it is not a competitor of Gaussian, Inc. and that
 it will not use this program in any manner prohibited above.
 ---------------------------------------------------------------
  

 Cite this work as:
 Gaussian 16, Revision A.03,
 M. J. Frisch, G. W. Trucks, H. B. Schlegel, G. E. Scuseria, 
 M. A. Robb, J. R. Cheeseman, G. Scalmani, V. Barone, 
 G. A. Petersson, H. Nakatsuji, X. Li, M. Caricato, A. V. Marenich, 
 J. Bloino, B. G. Janesko, R. Gomperts, B. Mennucci, H. P. Hratchian, 
 J. V. Ortiz, A. F. Izmaylov, J. L. Sonnenberg, D. Williams-Young, 
 F. Ding, F. Lipparini, F. Egidi, J. Goings, B. Peng, A. Petrone, 
 T. Henderson, D. Ranasinghe, V. G. Zakrzewski, J. Gao, N. Rega, 
 G. Zheng, W. Liang, M. Hada, M. Ehara, K. Toyota, R. Fukuda, 
 J. Hasegawa, M. Ishida, T. Nakajima, Y. Honda, O. Kitao, H. Nakai, 
 T. Vreven, K. Throssell, J. A. Montgomery, Jr., J. E. Peralta, 
 F. Ogliaro, M. J. Bearpark, J. J. Heyd, E. N. Brothers, K. N. Kudin, 
 V. N. Staroverov, T. A. Keith, R. Kobayashi, J. Normand, 
 K. Raghavachari, A. P. Rendell, J. C. Burant, S. S. Iyengar, 
 J. Tomasi, M. Cossi, J. M. Millam, M. Klene, C. Adamo, R. Cammi, 
 J. W. Ochterski, R. L. Martin, K. Morokuma, O. Farkas, 
 J. B. Foresman, and D. J. Fox, Gaussian, Inc., Wallingford CT, 2016.
 
 ******************************************
 Gaussian 16:  ES64L-G16RevA.03 25-Dec-2016
                 8-Nov-2025 
 ******************************************
 %nprocshared=64
 Will use up to   64 processors via shared memory.
 %mem=230GB
 %chk=M100532471_sp.chk
 ----------------------------------------------
 #p M062X/DEF2TZVPP scrf=(solvent=water) em=GD3
 ----------------------------------------------
 1/38=1,172=1/1;
 2/12=2,17=6,18=5,40=1/2;
 3/5=44,7=202,11=2,25=1,30=1,70=2201,72=1,74=-55,124=31/1,2,3;
 4//1;
 5/5=2,38=5,53=1/2;
 6/7=2,8=2,9=2,10=2,28=1/1;
 99/5=1,9=1/99;
 Leave Link    1 at Sat Nov  8 10:02:41 2025, MaxMem= 30870077440 cpu:              12.9 elap:               0.2
 (Enter /public/software/gauss/g16/l101.exe)
 ---------------------------------
 Energy calculation for M100532471
 ---------------------------------
 Symbolic Z-matrix:
 Charge =  0 Multiplicity = 1
 C                     10.41165   0.15277   0.4618 
 N                     9.75207  -1.07923   0.03405 
 C                     10.5187  -2.31524   0.17415 
 C                     8.37384  -1.14194   0.03874 
 C                     7.57886   0.0305    0.16422 
 C                     6.19756  -0.03028   0.12608 
 C                     5.5084   -1.25487  -0.02836 
 C                     4.06636  -1.37706  -0.07222 
 C                     3.15014  -0.37471   0.02684 
 C                     1.7313   -0.59663  -0.01973 
 C                     1.02201  -1.82903  -0.04438 
 C                    -0.3333   -1.56203  -0.06938 
 C                    -1.40063  -2.61365  -0.09319 
 C                    -0.46645  -0.12718  -0.05935 
 N                     0.82289   0.42     -0.02954 
 B                     1.14648   1.92926  -0.16702 
 F                     2.02462   2.33501   0.85341 
 F                     1.75102   2.18795  -1.40964 
 N                    -0.19188   2.69131  -0.05148 
 C                    -0.33752   4.03916  -0.0158 
 C                     0.81681   4.98478  -0.02581 
 C                    -1.70644   4.3461    0.02825 
 C                    -2.43224   3.15309   0.01316 
 C                    -3.92879   3.07226   0.05665 
 C                    -1.46424   2.10273  -0.04035 
 C                    -1.59803   0.69852  -0.06073 
 C                    -2.96255   0.09016  -0.07571 
 C                    -3.63535  -0.12422  -1.28253 
 C                    -4.90867  -0.69956  -1.3116 
 C                    -5.52489  -1.06425  -0.10931 
 O                    -6.76323  -1.64457  -0.01936 
 C                    -7.51617  -1.84817  -1.22117 
 C                    -8.84535  -2.45838  -0.82601 
 N                    -9.697    -1.52628  -0.04456 
 N                    -9.43865  -1.43799   1.15787 
 N                    -9.32036  -1.27222   2.28268 
 C                    -4.86446  -0.84767   1.10877 
 C                    -3.59653  -0.2782    1.12146 
 C                     6.30212  -2.41696  -0.13786 
 C                     7.68615  -2.3749   -0.10033 
 H                     10.11883   0.99542  -0.1702 
 H                     10.18727   0.41134   1.50623 
 H                     11.48972   0.02653   0.36243 
 H                     11.58106  -2.07891   0.11644 
 H                     10.32756  -2.82473   1.12921 
 H                     10.29096  -3.01229  -0.63692 
 H                     8.05083   0.99631   0.29245 
 H                     5.63959   0.89615   0.22305 
 H                     3.70311  -2.39513  -0.20293 
 H                     3.47673   0.65024   0.16022 
 H                     1.47221  -2.81195  -0.02844 
 H                    -2.0666   -2.50156  -0.95384 
 H                    -0.93873  -3.60314  -0.14497 
 H                    -2.02985  -2.57898   0.8014 
 H                     0.45737   6.01517  -0.05421 
 H                     1.4426    4.85484   0.86298 
 H                     1.45779   4.81253  -0.89691 
 H                    -2.11908   5.34561   0.0691 
 H                    -4.34824   4.07954   0.12767 
 H                    -4.34249   2.59642  -0.83804 
 H                    -4.28595   2.49533   0.91532 
 H                    -3.16181   0.15506  -2.21886 
 H                    -5.39901  -0.85825  -2.26421 
 H                    -7.66553  -0.89521  -1.7411 
 H                    -6.99107  -2.53942  -1.89172 
 H                    -9.40651  -2.68694  -1.7319 
 H                    -8.68747  -3.38801  -0.272 
 H                    -5.35848  -1.13209   2.03225 
 H                    -3.09246  -0.11722   2.06947 
 H                     5.80961  -3.37987  -0.24832 
 H                     8.23753  -3.30305  -0.17874 
 
 ITRead=  0  0  0  0  0  0  0  0  0  0  0  0  0  0  0  0  0  0  0  0
 ITRead=  0  0  0  0  0  0  0  0  0  0  0  0  0  0  0  0  0  0  0  0
 ITRead=  0  0  0  0  0  0  0  0  0  0  0  0  0  0  0  0  0  0  0  0
 ITRead=  0  0  0  0  0  0  0  0  0  0  0
 MicOpt= -1 -1 -1 -1 -1 -1 -1 -1 -1 -1 -1 -1 -1 -1 -1 -1 -1 -1 -1 -1
 MicOpt= -1 -1 -1 -1 -1 -1 -1 -1 -1 -1 -1 -1 -1 -1 -1 -1 -1 -1 -1 -1
 MicOpt= -1 -1 -1 -1 -1 -1 -1 -1 -1 -1 -1 -1 -1 -1 -1 -1 -1 -1 -1 -1
 MicOpt= -1 -1 -1 -1 -1 -1 -1 -1 -1 -1 -1
 NAtoms=     71 NQM=       71 NQMF=       0 NMMI=      0 NMMIF=      0
                NMic=       0 NMicF=      0.
                    Isotopes and Nuclear Properties:
 (Nuclear quadrupole moments (NQMom) in fm**2, nuclear magnetic moments (NMagM)
  in nuclear magnetons)

  Atom         1           2           3           4           5           6           7           8           9          10
 IAtWgt=          12          14          12          12          12          12          12          12          12          12
 AtmWgt=  12.0000000  14.0030740  12.0000000  12.0000000  12.0000000  12.0000000  12.0000000  12.0000000  12.0000000  12.0000000
 NucSpn=           0           2           0           0           0           0           0           0           0           0
 AtZEff=  -0.0000000  -0.0000000  -0.0000000  -0.0000000  -0.0000000  -0.0000000  -0.0000000  -0.0000000  -0.0000000  -0.0000000
 NQMom=    0.0000000   2.0440000   0.0000000   0.0000000   0.0000000   0.0000000   0.0000000   0.0000000   0.0000000   0.0000000
 NMagM=    0.0000000   0.4037610   0.0000000   0.0000000   0.0000000   0.0000000   0.0000000   0.0000000   0.0000000   0.0000000
 AtZNuc=   6.0000000   7.0000000   6.0000000   6.0000000   6.0000000   6.0000000   6.0000000   6.0000000   6.0000000   6.0000000

  Atom        11          12          13          14          15          16          17          18          19          20
 IAtWgt=          12          12          12          12          14          11          19          19          14          12
 AtmWgt=  12.0000000  12.0000000  12.0000000  12.0000000  14.0030740  11.0093053  18.9984033  18.9984033  14.0030740  12.0000000
 NucSpn=           0           0           0           0           2           3           1           1           2           0
 AtZEff=  -0.0000000  -0.0000000  -0.0000000  -0.0000000  -0.0000000  -0.0000000  -0.0000000  -0.0000000  -0.0000000  -0.0000000
 NQMom=    0.0000000   0.0000000   0.0000000   0.0000000   2.0440000   4.0590000   0.0000000   0.0000000   2.0440000   0.0000000
 NMagM=    0.0000000   0.0000000   0.0000000   0.0000000   0.4037610   2.6886370   2.6288670   2.6288670   0.4037610   0.0000000
 AtZNuc=   6.0000000   6.0000000   6.0000000   6.0000000   7.0000000   5.0000000   9.0000000   9.0000000   7.0000000   6.0000000

  Atom        21          22          23          24          25          26          27          28          29          30
 IAtWgt=          12          12          12          12          12          12          12          12          12          12
 AtmWgt=  12.0000000  12.0000000  12.0000000  12.0000000  12.0000000  12.0000000  12.0000000  12.0000000  12.0000000  12.0000000
 NucSpn=           0           0           0           0           0           0           0           0           0           0
 AtZEff=  -0.0000000  -0.0000000  -0.0000000  -0.0000000  -0.0000000  -0.0000000  -0.0000000  -0.0000000  -0.0000000  -0.0000000
 NQMom=    0.0000000   0.0000000   0.0000000   0.0000000   0.0000000   0.0000000   0.0000000   0.0000000   0.0000000   0.0000000
 NMagM=    0.0000000   0.0000000   0.0000000   0.0000000   0.0000000   0.0000000   0.0000000   0.0000000   0.0000000   0.0000000
 AtZNuc=   6.0000000   6.0000000   6.0000000   6.0000000   6.0000000   6.0000000   6.0000000   6.0000000   6.0000000   6.0000000

  Atom        31          32          33          34          35          36          37          38          39          40
 IAtWgt=          16          12          12          14          14          14          12          12          12          12
 AtmWgt=  15.9949146  12.0000000  12.0000000  14.0030740  14.0030740  14.0030740  12.0000000  12.0000000  12.0000000  12.0000000
 NucSpn=           0           0           0           2           2           2           0           0           0           0
 AtZEff=  -0.0000000  -0.0000000  -0.0000000  -0.0000000  -0.0000000  -0.0000000  -0.0000000  -0.0000000  -0.0000000  -0.0000000
 NQMom=    0.0000000   0.0000000   0.0000000   2.0440000   2.0440000   2.0440000   0.0000000   0.0000000   0.0000000   0.0000000
 NMagM=    0.0000000   0.0000000   0.0000000   0.4037610   0.4037610   0.4037610   0.0000000   0.0000000   0.0000000   0.0000000
 AtZNuc=   8.0000000   6.0000000   6.0000000   7.0000000   7.0000000   7.0000000   6.0000000   6.0000000   6.0000000   6.0000000

  Atom        41          42          43          44          45          46          47          48          49          50
 IAtWgt=           1           1           1           1           1           1           1           1           1           1
 AtmWgt=   1.0078250   1.0078250   1.0078250   1.0078250   1.0078250   1.0078250   1.0078250   1.0078250   1.0078250   1.0078250
 NucSpn=           1           1           1           1           1           1           1           1           1           1
 AtZEff=  -0.0000000  -0.0000000  -0.0000000  -0.0000000  -0.0000000  -0.0000000  -0.0000000  -0.0000000  -0.0000000  -0.0000000
 NQMom=    0.0000000   0.0000000   0.0000000   0.0000000   0.0000000   0.0000000   0.0000000   0.0000000   0.0000000   0.0000000
 NMagM=    2.7928460   2.7928460   2.7928460   2.7928460   2.7928460   2.7928460   2.7928460   2.7928460   2.7928460   2.7928460
 AtZNuc=   1.0000000   1.0000000   1.0000000   1.0000000   1.0000000   1.0000000   1.0000000   1.0000000   1.0000000   1.0000000

  Atom        51          52          53          54          55          56          57          58          59          60
 IAtWgt=           1           1           1           1           1           1           1           1           1           1
 AtmWgt=   1.0078250   1.0078250   1.0078250   1.0078250   1.0078250   1.0078250   1.0078250   1.0078250   1.0078250   1.0078250
 NucSpn=           1           1           1           1           1           1           1           1           1           1
 AtZEff=  -0.0000000  -0.0000000  -0.0000000  -0.0000000  -0.0000000  -0.0000000  -0.0000000  -0.0000000  -0.0000000  -0.0000000
 NQMom=    0.0000000   0.0000000   0.0000000   0.0000000   0.0000000   0.0000000   0.0000000   0.0000000   0.0000000   0.0000000
 NMagM=    2.7928460   2.7928460   2.7928460   2.7928460   2.7928460   2.7928460   2.7928460   2.7928460   2.7928460   2.7928460
 AtZNuc=   1.0000000   1.0000000   1.0000000   1.0000000   1.0000000   1.0000000   1.0000000   1.0000000   1.0000000   1.0000000

  Atom        61          62          63          64          65          66          67          68          69          70
 IAtWgt=           1           1           1           1           1           1           1           1           1           1
 AtmWgt=   1.0078250   1.0078250   1.0078250   1.0078250   1.0078250   1.0078250   1.0078250   1.0078250   1.0078250   1.0078250
 NucSpn=           1           1           1           1           1           1           1           1           1           1
 AtZEff=  -0.0000000  -0.0000000  -0.0000000  -0.0000000  -0.0000000  -0.0000000  -0.0000000  -0.0000000  -0.0000000  -0.0000000
 NQMom=    0.0000000   0.0000000   0.0000000   0.0000000   0.0000000   0.0000000   0.0000000   0.0000000   0.0000000   0.0000000
 NMagM=    2.7928460   2.7928460   2.7928460   2.7928460   2.7928460   2.7928460   2.7928460   2.7928460   2.7928460   2.7928460
 AtZNuc=   1.0000000   1.0000000   1.0000000   1.0000000   1.0000000   1.0000000   1.0000000   1.0000000   1.0000000   1.0000000

  Atom        71
 IAtWgt=           1
 AtmWgt=   1.0078250
 NucSpn=           1
 AtZEff=  -0.0000000
 NQMom=    0.0000000
 NMagM=    2.7928460
 AtZNuc=   1.0000000
 Leave Link  101 at Sat Nov  8 10:02:41 2025, MaxMem= 30870077440 cpu:               3.9 elap:               0.1
 (Enter /public/software/gauss/g16/l202.exe)
 Stoichiometry    C30H31BF2N6O
 Framework group  C1[X(C30H31BF2N6O)]
 Deg. of freedom   207
 Full point group                 C1      NOp   1
 Largest Abelian subgroup         C1      NOp   1
 Largest concise Abelian subgroup C1      NOp   1
                         Standard orientation:                         
 ---------------------------------------------------------------------
 Center     Atomic      Atomic             Coordinates (Angstroms)
 Number     Number       Type             X           Y           Z
 ---------------------------------------------------------------------
      1          6           0       10.411647    0.152767    0.461800
      2          7           0        9.752073   -1.079233    0.034046
      3          6           0       10.518698   -2.315239    0.174151
      4          6           0        8.373842   -1.141945    0.038736
      5          6           0        7.578858    0.030495    0.164221
      6          6           0        6.197565   -0.030279    0.126079
      7          6           0        5.508403   -1.254866   -0.028355
      8          6           0        4.066362   -1.377061   -0.072221
      9          6           0        3.150143   -0.374714    0.026844
     10          6           0        1.731299   -0.596627   -0.019726
     11          6           0        1.022010   -1.829032   -0.044376
     12          6           0       -0.333301   -1.562034   -0.069375
     13          6           0       -1.400629   -2.613646   -0.093191
     14          6           0       -0.466454   -0.127183   -0.059348
     15          7           0        0.822885    0.420000   -0.029543
     16          5           0        1.146478    1.929259   -0.167016
     17          9           0        2.024625    2.335006    0.853414
     18          9           0        1.751022    2.187953   -1.409637
     19          7           0       -0.191884    2.691308   -0.051480
     20          6           0       -0.337517    4.039157   -0.015797
     21          6           0        0.816805    4.984783   -0.025811
     22          6           0       -1.706444    4.346101    0.028250
     23          6           0       -2.432238    3.153091    0.013159
     24          6           0       -3.928789    3.072258    0.056645
     25          6           0       -1.464236    2.102733   -0.040348
     26          6           0       -1.598027    0.698524   -0.060728
     27          6           0       -2.962546    0.090158   -0.075714
     28          6           0       -3.635349   -0.124224   -1.282525
     29          6           0       -4.908671   -0.699561   -1.311600
     30          6           0       -5.524892   -1.064250   -0.109309
     31          8           0       -6.763228   -1.644574   -0.019358
     32          6           0       -7.516171   -1.848172   -1.221166
     33          6           0       -8.845353   -2.458383   -0.826009
     34          7           0       -9.697004   -1.526275   -0.044559
     35          7           0       -9.438651   -1.437985    1.157868
     36          7           0       -9.320364   -1.272221    2.282676
     37          6           0       -4.864461   -0.847670    1.108770
     38          6           0       -3.596527   -0.278196    1.121460
     39          6           0        6.302116   -2.416957   -0.137859
     40          6           0        7.686146   -2.374895   -0.100325
     41          1           0       10.118826    0.995421   -0.170197
     42          1           0       10.187269    0.411344    1.506225
     43          1           0       11.489723    0.026526    0.362426
     44          1           0       11.581064   -2.078915    0.116438
     45          1           0       10.327565   -2.824730    1.129210
     46          1           0       10.290965   -3.012289   -0.636917
     47          1           0        8.050833    0.996312    0.292447
     48          1           0        5.639593    0.896145    0.223045
     49          1           0        3.703111   -2.395133   -0.202931
     50          1           0        3.476726    0.650238    0.160218
     51          1           0        1.472205   -2.811952   -0.028442
     52          1           0       -2.066599   -2.501561   -0.953843
     53          1           0       -0.938732   -3.603138   -0.144965
     54          1           0       -2.029851   -2.578982    0.801395
     55          1           0        0.457368    6.015169   -0.054212
     56          1           0        1.442602    4.854838    0.862979
     57          1           0        1.457789    4.812530   -0.896911
     58          1           0       -2.119082    5.345610    0.069096
     59          1           0       -4.348242    4.079536    0.127669
     60          1           0       -4.342493    2.596424   -0.838040
     61          1           0       -4.285948    2.495333    0.915321
     62          1           0       -3.161810    0.155057   -2.218862
     63          1           0       -5.399013   -0.858250   -2.264210
     64          1           0       -7.665534   -0.895213   -1.741102
     65          1           0       -6.991065   -2.539424   -1.891717
     66          1           0       -9.406507   -2.686935   -1.731902
     67          1           0       -8.687470   -3.388012   -0.271995
     68          1           0       -5.358480   -1.132092    2.032254
     69          1           0       -3.092457   -0.117219    2.069470
     70          1           0        5.809606   -3.379874   -0.248321
     71          1           0        8.237530   -3.303048   -0.178736
 ---------------------------------------------------------------------
 Rotational constants (GHZ):           0.1948002           0.0288366           0.0258417
 Leave Link  202 at Sat Nov  8 10:02:41 2025, MaxMem= 30870077440 cpu:               0.2 elap:               0.0
 (Enter /public/software/gauss/g16/l301.exe)
 Standard basis: def2TZVPP (5D, 7F)
 Ernie: Thresh=  0.10000D-02 Tol=  0.10000D-05 Strict=F.
 There are  1905 symmetry adapted cartesian basis functions of A   symmetry.
 There are  1674 symmetry adapted basis functions of A   symmetry.
  1674 basis functions,  2567 primitive gaussians,  1905 cartesian basis functions
   142 alpha electrons      142 beta electrons
       nuclear repulsion energy      4156.6184975085 Hartrees.
 IExCor= 4336 DFT=T Ex+Corr=M062X ExCW=0 ScaHFX=  0.540000
 ScaDFX=  1.000000  1.000000  1.000000  1.000000 ScalE2=  1.000000  1.000000
 IRadAn=      5 IRanWt=     -1 IRanGd=            0 ICorTp=0 IEmpDi=131
 NAtoms=   71 NActive=   71 NUniq=   71 SFac= 1.00D+00 NAtFMM=   60 NAOKFM=T Big=T
 Integral buffers will be    131072 words long.
 Raffenetti 2 integral format.
 Two-electron integral symmetry is turned on.
 R6Disp:  Grimme-D3 Dispersion energy=       -0.0054320025 Hartrees.
 Nuclear repulsion after empirical dispersion term =     4156.6130655060 Hartrees.
 ------------------------------------------------------------------------------
 Polarizable Continuum Model (PCM)
 =================================
 Model                : PCM.
 Atomic radii         : UFF (Universal Force Field).
 Polarization charges : Total charges.
 Charge compensation  : None.
 Solution method      : On-the-fly selection.
 Cavity type          : Scaled VdW (van der Waals Surface) (Alpha=1.100).
 Cavity algorithm     : GePol (No added spheres)
                        Default sphere list used, NSphG=   71.
                        Lebedev-Laikov grids with approx.  5.0 points / Ang**2.
                        Smoothing algorithm: York/Karplus (Gamma=1.0000).
                        Polarization charges: spherical gaussians, with
                                              point-specific exponents (IZeta= 3).
                        Self-potential: point-specific (ISelfS= 7).
                        Self-field    : sphere-specific E.n sum rule (ISelfD= 2).
 Solvent              : Water, Eps=  78.355300 Eps(inf)=   1.777849
 ------------------------------------------------------------------------------
 GePol: Number of generator spheres                  =      71
 GePol: Total number of spheres                      =      71
 GePol: Number of exposed spheres                    =      71 (100.00%)
 GePol: Number of points                             =    5083
 GePol: Average weight of points                     =       0.13
 GePol: Minimum weight of points                     =   0.31D-10
 GePol: Maximum weight of points                     =    0.20577
 GePol: Number of points with low weight             =     327
 GePol: Fraction of low-weight points (<1% of avg)   =       6.43%
 GePol: Cavity surface area                          =    644.027 Ang**2
 GePol: Cavity volume                                =    734.622 Ang**3
 Leave Link  301 at Sat Nov  8 10:02:41 2025, MaxMem= 30870077440 cpu:               3.7 elap:               0.1
 (Enter /public/software/gauss/g16/l302.exe)
 NPDir=0 NMtPBC=     1 NCelOv=     1 NCel=       1 NClECP=     1 NCelD=      1
         NCelK=      1 NCelE2=     1 NClLst=     1 CellRange=     0.0.
 One-electron integrals computed using PRISM.
 One-electron integral symmetry used in STVInt
   1 Symmetry operations used in ECPInt.
 ECPInt:  NShTT=  196251 NPrTT=  550649 LenC2=  121805 LenP2D=  235657.
 LDataN:  DoStor=T MaxTD1= 6 Len=  172
 NBasis=  1674 RedAO= T EigKep=  3.66D-06  NBF=  1674
 NBsUse=  1674 1.00D-06 EigRej= -1.00D+00 NBFU=  1674
 Precomputing XC quadrature grid using
 IXCGrd= 4 IRadAn=           5 IRanWt=          -1 IRanGd=           0 AccXCQ= 0.00D+00.
 Generated NRdTot=       0 NPtTot=           0 NUsed=           0 NTot=          32
 NSgBfM=  1624  1610  1612  1612  1624 MxSgAt=    71 MxSgA2=    71.
 Leave Link  302 at Sat Nov  8 10:02:49 2025, MaxMem= 30870077440 cpu:             461.9 elap:               7.3
 (Enter /public/software/gauss/g16/l303.exe)
 DipDrv:  MaxL=1.
 Leave Link  303 at Sat Nov  8 10:02:49 2025, MaxMem= 30870077440 cpu:              22.8 elap:               0.4
 (Enter /public/software/gauss/g16/l401.exe)
 ExpMin= 6.06D-02 ExpMax= 3.55D+04 ExpMxC= 1.21D+03 IAcc=3 IRadAn=         5 AccDes= 0.00D+00
 Harris functional with IExCor= 1009 and IRadAn=       5 diagonalized for initial guess.
 HarFok:  IExCor= 1009 AccDes= 0.00D+00 IRadAn=         5 IDoV= 1 UseB2=F ITyADJ=14
 ICtDFT=  3500011 ScaDFX=  1.000000  1.000000  1.000000  1.000000
 FoFCou: FMM=F IPFlag=           0 FMFlag=      100000 FMFlg1=        2001
         NFxFlg=           0 DoJE=T BraDBF=F KetDBF=T FulRan=T
         wScrn=  0.000000 ICntrl=       500 IOpCl=  0 I1Cent=   200000004 NGrid=           0
         NMat0=    1 NMatS0=      1 NMatT0=    0 NMatD0=    1 NMtDS0=    0 NMtDT0=    0
 Petite list used in FoFCou.
 Harris En= -1789.30305331446    
 JPrj=0 DoOrth=F DoCkMO=F.
 Leave Link  401 at Sat Nov  8 10:02:58 2025, MaxMem= 30870077440 cpu:             535.2 elap:               8.4
 (Enter /public/software/gauss/g16/l502.exe)
 Integral symmetry usage will be decided dynamically.
 Closed shell SCF:
 Using DIIS extrapolation, IDIIS=  1040.
 NGot= 30870077440 LenX= 30862681367 LenY= 30859050437
 Requested convergence on RMS density matrix=1.00D-08 within 128 cycles.
 Requested convergence on MAX density matrix=1.00D-06.
 Requested convergence on             energy=1.00D-06.
 No special actions if energy rises.
 Fock matrices will be formed incrementally for  20 cycles.

 Cycle   1  Pass 1  IDiag  1:
 FoFJK:  IHMeth= 1 ICntrl=       0 DoSepK=F KAlg= 0 I1Cent=           0 FoldK=F
 IRaf= 590000000 NMat=       1 IRICut=       1 DoRegI=T DoRafI=F ISym2E= 0 IDoP0=0 IntGTp=1.
 FoFCou: FMM=T IPFlag=           0 FMFlag=      100000 FMFlg1=        2001
         NFxFlg=           0 DoJE=F BraDBF=F KetDBF=F FulRan=T
         wScrn=  0.000000 ICntrl=         0 IOpCl=  0 I1Cent=           0 NGrid=           0
         NMat0=    1 NMatS0=      1 NMatT0=    0 NMatD0=    1 NMtDS0=    0 NMtDT0=    0
 Symmetry not used in FoFCou.
 FMM levels:  10  Number of levels for PrismC:   9
 Inv3:  Mode=1 IEnd=    77510667.
 Iteration    1 A*A^-1 deviation from unit magnitude is 8.10D-15 for   5059.
 Iteration    1 A*A^-1 deviation from orthogonality  is 5.20D-15 for   5063   2193.
 Iteration    1 A^-1*A deviation from unit magnitude is 7.88D-15 for   5059.
 Iteration    1 A^-1*A deviation from orthogonality  is 6.23D-15 for   3730   3697.
 E= -1789.34394687694    
 DIIS: error= 2.26D-02 at cycle   1 NSaved=   1.
 NSaved= 1 IEnMin= 1 EnMin= -1789.34394687694     IErMin= 1 ErrMin= 2.26D-02
 ErrMax= 2.26D-02  0.00D+00 EMaxC= 1.00D-01 BMatC= 1.15D+00 BMatP= 1.15D+00
 IDIUse=3 WtCom= 7.74D-01 WtEn= 2.26D-01
 Coeff-Com:  0.100D+01
 Coeff-En:   0.100D+01
 Coeff:      0.100D+01
 Gap=     0.141 Goal=   None    Shift=    0.000
 GapD=    0.141 DampG=1.000 DampE=0.500 DampFc=0.5000 IDamp=-1.
 Damping current iteration by 5.00D-01
 RMSDP=1.22D-03 MaxDP=1.29D-01              OVMax= 1.69D-01

 Cycle   2  Pass 1  IDiag  1:
 RMSU=  6.08D-04    CP:  9.83D-01
 E= -1789.80614284046     Delta-E=       -0.462195963520 Rises=F Damp=T
 DIIS: error= 6.56D-03 at cycle   2 NSaved=   2.
 NSaved= 2 IEnMin= 2 EnMin= -1789.80614284046     IErMin= 2 ErrMin= 6.56D-03
 ErrMax= 6.56D-03  0.00D+00 EMaxC= 1.00D-01 BMatC= 1.12D-01 BMatP= 1.15D+00
 IDIUse=3 WtCom= 9.34D-01 WtEn= 6.56D-02
 Coeff-Com: -0.167D+00 0.117D+01
 Coeff-En:   0.000D+00 0.100D+01
 Coeff:     -0.156D+00 0.116D+01
 Gap=     0.146 Goal=   None    Shift=    0.000
 RMSDP=6.20D-04 MaxDP=5.45D-02 DE=-4.62D-01 OVMax= 1.01D-01

 Cycle   3  Pass 1  IDiag  1:
 RMSU=  5.46D-04    CP:  9.70D-01  1.48D+00
 E= -1790.20163701121     Delta-E=       -0.395494170750 Rises=F Damp=F
 DIIS: error= 3.36D-03 at cycle   3 NSaved=   3.
 NSaved= 3 IEnMin= 3 EnMin= -1790.20163701121     IErMin= 3 ErrMin= 3.36D-03
 ErrMax= 3.36D-03  0.00D+00 EMaxC= 1.00D-01 BMatC= 4.46D-02 BMatP= 1.12D-01
 IDIUse=3 WtCom= 9.66D-01 WtEn= 3.36D-02
 Coeff-Com: -0.133D+00 0.490D+00 0.643D+00
 Coeff-En:   0.000D+00 0.000D+00 0.100D+01
 Coeff:     -0.128D+00 0.473D+00 0.655D+00
 Gap=     0.141 Goal=   None    Shift=    0.000
 RMSDP=1.59D-04 MaxDP=3.26D-02 DE=-3.95D-01 OVMax= 5.27D-02

 Cycle   4  Pass 1  IDiag  1:
 RMSU=  1.53D-04    CP:  9.72D-01  1.50D+00  9.24D-01
 E= -1790.23043287565     Delta-E=       -0.028795864442 Rises=F Damp=F
 DIIS: error= 1.29D-03 at cycle   4 NSaved=   4.
 NSaved= 4 IEnMin= 4 EnMin= -1790.23043287565     IErMin= 4 ErrMin= 1.29D-03
 ErrMax= 1.29D-03  0.00D+00 EMaxC= 1.00D-01 BMatC= 9.51D-03 BMatP= 4.46D-02
 IDIUse=3 WtCom= 9.87D-01 WtEn= 1.29D-02
 Coeff-Com: -0.464D-01 0.117D+00 0.354D+00 0.575D+00
 Coeff-En:   0.000D+00 0.000D+00 0.165D+00 0.835D+00
 Coeff:     -0.458D-01 0.115D+00 0.352D+00 0.579D+00
 Gap=     0.141 Goal=   None    Shift=    0.000
 RMSDP=5.81D-05 MaxDP=6.89D-03 DE=-2.88D-02 OVMax= 1.54D-02

 Cycle   5  Pass 1  IDiag  1:
 RMSU=  4.49D-05    CP:  9.71D-01  1.52D+00  9.29D-01  7.69D-01
 E= -1790.23798087075     Delta-E=       -0.007547995103 Rises=F Damp=F
 DIIS: error= 4.72D-04 at cycle   5 NSaved=   5.
 NSaved= 5 IEnMin= 5 EnMin= -1790.23798087075     IErMin= 5 ErrMin= 4.72D-04
 ErrMax= 4.72D-04  0.00D+00 EMaxC= 1.00D-01 BMatC= 5.79D-04 BMatP= 9.51D-03
 IDIUse=3 WtCom= 9.95D-01 WtEn= 4.72D-03
 Coeff-Com: -0.174D-01 0.368D-01 0.154D+00 0.304D+00 0.523D+00
 Coeff-En:   0.000D+00 0.000D+00 0.000D+00 0.000D+00 0.100D+01
 Coeff:     -0.173D-01 0.367D-01 0.153D+00 0.303D+00 0.525D+00
 Gap=     0.142 Goal=   None    Shift=    0.000
 RMSDP=1.52D-05 MaxDP=3.39D-03 DE=-7.55D-03 OVMax= 8.95D-03

 Cycle   6  Pass 1  IDiag  1:
 RMSU=  1.47D-05    CP:  9.71D-01  1.52D+00  9.32D-01  7.63D-01  9.30D-01
 E= -1790.23841440113     Delta-E=       -0.000433530377 Rises=F Damp=F
 DIIS: error= 2.16D-04 at cycle   6 NSaved=   6.
 NSaved= 6 IEnMin= 6 EnMin= -1790.23841440113     IErMin= 6 ErrMin= 2.16D-04
 ErrMax= 2.16D-04  0.00D+00 EMaxC= 1.00D-01 BMatC= 8.72D-05 BMatP= 5.79D-04
 IDIUse=3 WtCom= 9.98D-01 WtEn= 2.16D-03
 Coeff-Com: -0.341D-02 0.513D-02 0.391D-01 0.922D-01 0.306D+00 0.561D+00
 Coeff-En:   0.000D+00 0.000D+00 0.000D+00 0.000D+00 0.840D-01 0.916D+00
 Coeff:     -0.340D-02 0.512D-02 0.390D-01 0.920D-01 0.306D+00 0.561D+00
 Gap=     0.143 Goal=   None    Shift=    0.000
 RMSDP=6.16D-06 MaxDP=9.53D-04 DE=-4.34D-04 OVMax= 3.71D-03

 Cycle   7  Pass 1  IDiag  1:
 RMSU=  5.40D-06    CP:  9.71D-01  1.52D+00  9.32D-01  7.68D-01  9.92D-01
                    CP:  9.97D-01
 E= -1790.23849186023     Delta-E=       -0.000077459104 Rises=F Damp=F
 DIIS: error= 3.93D-05 at cycle   7 NSaved=   7.
 NSaved= 7 IEnMin= 7 EnMin= -1790.23849186023     IErMin= 7 ErrMin= 3.93D-05
 ErrMax= 3.93D-05  0.00D+00 EMaxC= 1.00D-01 BMatC= 8.23D-06 BMatP= 8.72D-05
 IDIUse=1 WtCom= 1.00D+00 WtEn= 0.00D+00
 Coeff-Com:  0.126D-02-0.358D-02-0.713D-02-0.823D-02 0.638D-01 0.268D+00
 Coeff-Com:  0.686D+00
 Coeff:      0.126D-02-0.358D-02-0.713D-02-0.823D-02 0.638D-01 0.268D+00
 Coeff:      0.686D+00
 Gap=     0.143 Goal=   None    Shift=    0.000
 RMSDP=3.58D-06 MaxDP=4.93D-04 DE=-7.75D-05 OVMax= 1.59D-03

 Cycle   8  Pass 1  IDiag  1:
 RMSU=  2.59D-06    CP:  9.72D-01  1.52D+00  9.33D-01  7.70D-01  1.03D+00
                    CP:  1.09D+00  1.18D+00
 E= -1790.23850256444     Delta-E=       -0.000010704203 Rises=F Damp=F
 DIIS: error= 2.54D-05 at cycle   8 NSaved=   8.
 NSaved= 8 IEnMin= 8 EnMin= -1790.23850256444     IErMin= 8 ErrMin= 2.54D-05
 ErrMax= 2.54D-05  0.00D+00 EMaxC= 1.00D-01 BMatC= 1.15D-06 BMatP= 8.23D-06
 IDIUse=1 WtCom= 1.00D+00 WtEn= 0.00D+00
 Coeff-Com:  0.121D-02-0.260D-02-0.104D-01-0.215D-01-0.283D-01 0.165D-01
 Coeff-Com:  0.288D+00 0.757D+00
 Coeff:      0.121D-02-0.260D-02-0.104D-01-0.215D-01-0.283D-01 0.165D-01
 Coeff:      0.288D+00 0.757D+00
 Gap=     0.143 Goal=   None    Shift=    0.000
 RMSDP=1.99D-06 MaxDP=2.21D-04 DE=-1.07D-05 OVMax= 1.02D-03

 Cycle   9  Pass 1  IDiag  1:
 RMSU=  1.26D-06    CP:  9.72D-01  1.52D+00  9.33D-01  7.72D-01  1.04D+00
                    CP:  1.15D+00  1.33D+00  1.17D+00
 E= -1790.23850492441     Delta-E=       -0.000002359970 Rises=F Damp=F
 DIIS: error= 1.12D-05 at cycle   9 NSaved=   9.
 NSaved= 9 IEnMin= 9 EnMin= -1790.23850492441     IErMin= 9 ErrMin= 1.12D-05
 ErrMax= 1.12D-05  0.00D+00 EMaxC= 1.00D-01 BMatC= 1.89D-07 BMatP= 1.15D-06
 IDIUse=1 WtCom= 1.00D+00 WtEn= 0.00D+00
 Coeff-Com:  0.299D-03-0.545D-03-0.300D-02-0.732D-02-0.190D-01-0.261D-01
 Coeff-Com:  0.178D-01 0.297D+00 0.741D+00
 Coeff:      0.299D-03-0.545D-03-0.300D-02-0.732D-02-0.190D-01-0.261D-01
 Coeff:      0.178D-01 0.297D+00 0.741D+00
 Gap=     0.143 Goal=   None    Shift=    0.000
 RMSDP=7.36D-07 MaxDP=6.60D-05 DE=-2.36D-06 OVMax= 6.36D-04

 Cycle  10  Pass 1  IDiag  1:
 RMSU=  6.14D-07    CP:  9.72D-01  1.52D+00  9.33D-01  7.71D-01  1.05D+00
                    CP:  1.16D+00  1.36D+00  1.25D+00  1.15D+00
 E= -1790.23850540961     Delta-E=       -0.000000485208 Rises=F Damp=F
 DIIS: error= 5.45D-06 at cycle  10 NSaved=  10.
 NSaved=10 IEnMin=10 EnMin= -1790.23850540961     IErMin=10 ErrMin= 5.45D-06
 ErrMax= 5.45D-06  0.00D+00 EMaxC= 1.00D-01 BMatC= 5.74D-08 BMatP= 1.89D-07
 IDIUse=1 WtCom= 1.00D+00 WtEn= 0.00D+00
 Coeff-Com: -0.143D-03 0.355D-03 0.104D-02 0.155D-02-0.234D-02-0.134D-01
 Coeff-Com: -0.571D-01-0.560D-01 0.350D+00 0.776D+00
 Coeff:     -0.143D-03 0.355D-03 0.104D-02 0.155D-02-0.234D-02-0.134D-01
 Coeff:     -0.571D-01-0.560D-01 0.350D+00 0.776D+00
 Gap=     0.143 Goal=   None    Shift=    0.000
 RMSDP=4.89D-07 MaxDP=6.32D-05 DE=-4.85D-07 OVMax= 3.60D-04

 Cycle  11  Pass 1  IDiag  1:
 RMSU=  2.89D-07    CP:  9.72D-01  1.52D+00  9.33D-01  7.71D-01  1.05D+00
                    CP:  1.16D+00  1.39D+00  1.34D+00  1.35D+00  1.13D+00
 E= -1790.23850555645     Delta-E=       -0.000000146835 Rises=F Damp=F
 DIIS: error= 1.97D-06 at cycle  11 NSaved=  11.
 NSaved=11 IEnMin=11 EnMin= -1790.23850555645     IErMin=11 ErrMin= 1.97D-06
 ErrMax= 1.97D-06  0.00D+00 EMaxC= 1.00D-01 BMatC= 7.43D-09 BMatP= 5.74D-08
 IDIUse=1 WtCom= 1.00D+00 WtEn= 0.00D+00
 Coeff-Com: -0.107D-03 0.230D-03 0.965D-03 0.203D-02 0.249D-02 0.238D-03
 Coeff-Com: -0.253D-01-0.824D-01 0.139D-01 0.267D+00 0.821D+00
 Coeff:     -0.107D-03 0.230D-03 0.965D-03 0.203D-02 0.249D-02 0.238D-03
 Coeff:     -0.253D-01-0.824D-01 0.139D-01 0.267D+00 0.821D+00
 Gap=     0.143 Goal=   None    Shift=    0.000
 RMSDP=2.13D-07 MaxDP=1.44D-05 DE=-1.47D-07 OVMax= 2.03D-04

 Cycle  12  Pass 1  IDiag  1:
 RMSU=  1.11D-07    CP:  9.72D-01  1.52D+00  9.33D-01  7.71D-01  1.05D+00
                    CP:  1.16D+00  1.40D+00  1.36D+00  1.42D+00  1.34D+00
                    CP:  1.17D+00
 E= -1790.23850558449     Delta-E=       -0.000000028036 Rises=F Damp=F
 DIIS: error= 1.11D-06 at cycle  12 NSaved=  12.
 NSaved=12 IEnMin=12 EnMin= -1790.23850558449     IErMin=12 ErrMin= 1.11D-06
 ErrMax= 1.11D-06  0.00D+00 EMaxC= 1.00D-01 BMatC= 2.58D-09 BMatP= 7.43D-09
 IDIUse=1 WtCom= 1.00D+00 WtEn= 0.00D+00
 Coeff-Com: -0.197D-04 0.340D-04 0.244D-03 0.666D-03 0.154D-02 0.290D-02
 Coeff-Com: -0.449D-03-0.296D-01-0.606D-01-0.370D-01 0.408D+00 0.715D+00
 Coeff:     -0.197D-04 0.340D-04 0.244D-03 0.666D-03 0.154D-02 0.290D-02
 Coeff:     -0.449D-03-0.296D-01-0.606D-01-0.370D-01 0.408D+00 0.715D+00
 Gap=     0.143 Goal=   None    Shift=    0.000
 RMSDP=1.08D-07 MaxDP=1.17D-05 DE=-2.80D-08 OVMax= 8.89D-05

 Cycle  13  Pass 1  IDiag  1:
 RMSU=  4.93D-08    CP:  9.72D-01  1.52D+00  9.33D-01  7.71D-01  1.05D+00
                    CP:  1.17D+00  1.40D+00  1.36D+00  1.46D+00  1.38D+00
                    CP:  1.38D+00  1.32D+00
 E= -1790.23850559181     Delta-E=       -0.000000007325 Rises=F Damp=F
 DIIS: error= 4.19D-07 at cycle  13 NSaved=  13.
 NSaved=13 IEnMin=13 EnMin= -1790.23850559181     IErMin=13 ErrMin= 4.19D-07
 ErrMax= 4.19D-07  0.00D+00 EMaxC= 1.00D-01 BMatC= 4.18D-10 BMatP= 2.58D-09
 IDIUse=1 WtCom= 1.00D+00 WtEn= 0.00D+00
 Coeff-Com:  0.211D-04-0.488D-04-0.164D-03-0.271D-03-0.568D-04 0.123D-02
 Coeff-Com:  0.706D-02 0.109D-01-0.276D-01-0.879D-01-0.541D-01 0.264D+00
 Coeff-Com:  0.887D+00
 Coeff:      0.211D-04-0.488D-04-0.164D-03-0.271D-03-0.568D-04 0.123D-02
 Coeff:      0.706D-02 0.109D-01-0.276D-01-0.879D-01-0.541D-01 0.264D+00
 Coeff:      0.887D+00
 Gap=     0.143 Goal=   None    Shift=    0.000
 RMSDP=5.70D-08 MaxDP=5.75D-06 DE=-7.33D-09 OVMax= 5.38D-05

 Cycle  14  Pass 1  IDiag  1:
 RMSU=  2.21D-08    CP:  9.72D-01  1.52D+00  9.33D-01  7.71D-01  1.05D+00
                    CP:  1.17D+00  1.40D+00  1.36D+00  1.46D+00  1.43D+00
                    CP:  1.48D+00  1.61D+00  1.28D+00
 E= -1790.23850559380     Delta-E=       -0.000000001985 Rises=F Damp=F
 DIIS: error= 1.65D-07 at cycle  14 NSaved=  14.
 NSaved=14 IEnMin=14 EnMin= -1790.23850559380     IErMin=14 ErrMin= 1.65D-07
 ErrMax= 1.65D-07  0.00D+00 EMaxC= 1.00D-01 BMatC= 8.77D-11 BMatP= 4.18D-10
 IDIUse=1 WtCom= 1.00D+00 WtEn= 0.00D+00
 Coeff-Com:  0.107D-04-0.228D-04-0.106D-03-0.221D-03-0.296D-03-0.119D-03
 Coeff-Com:  0.270D-02 0.929D-02 0.462D-03-0.241D-01-0.956D-01-0.438D-01
 Coeff-Com:  0.356D+00 0.796D+00
 Coeff:      0.107D-04-0.228D-04-0.106D-03-0.221D-03-0.296D-03-0.119D-03
 Coeff:      0.270D-02 0.929D-02 0.462D-03-0.241D-01-0.956D-01-0.438D-01
 Coeff:      0.356D+00 0.796D+00
 Gap=     0.143 Goal=   None    Shift=    0.000
 RMSDP=2.24D-08 MaxDP=2.66D-06 DE=-1.99D-09 OVMax= 1.82D-05

 Cycle  15  Pass 1  IDiag  1:
 RMSU=  9.14D-09    CP:  9.72D-01  1.52D+00  9.33D-01  7.71D-01  1.05D+00
                    CP:  1.17D+00  1.40D+00  1.36D+00  1.47D+00  1.43D+00
                    CP:  1.51D+00  1.70D+00  1.46D+00  1.26D+00
 E= -1790.23850559414     Delta-E=       -0.000000000339 Rises=F Damp=F
 DIIS: error= 6.15D-08 at cycle  15 NSaved=  15.
 NSaved=15 IEnMin=15 EnMin= -1790.23850559414     IErMin=15 ErrMin= 6.15D-08
 ErrMax= 6.15D-08  0.00D+00 EMaxC= 1.00D-01 BMatC= 9.67D-12 BMatP= 8.77D-11
 IDIUse=1 WtCom= 1.00D+00 WtEn= 0.00D+00
 Coeff-Com: -0.500D-06 0.142D-05-0.528D-05-0.224D-04-0.648D-04-0.236D-03
 Coeff-Com: -0.283D-03 0.106D-02 0.429D-02 0.775D-02-0.213D-01-0.590D-01
 Coeff-Com: -0.373D-01 0.209D+00 0.897D+00
 Coeff:     -0.500D-06 0.142D-05-0.528D-05-0.224D-04-0.648D-04-0.236D-03
 Coeff:     -0.283D-03 0.106D-02 0.429D-02 0.775D-02-0.213D-01-0.590D-01
 Coeff:     -0.373D-01 0.209D+00 0.897D+00
 Gap=     0.143 Goal=   None    Shift=    0.000
 RMSDP=8.52D-09 MaxDP=9.20D-07 DE=-3.39D-10 OVMax= 7.07D-06

 Error on total polarization charges =  0.02389
 SCF Done:  E(RM062X) =  -1790.23850559     A.U. after   15 cycles
            NFock= 15  Conv=0.85D-08     -V/T= 2.0055
 KE= 1.780493724809D+03 PE=-1.248708545479D+04 EE= 4.759740158883D+03
 Leave Link  502 at Sat Nov  8 10:15:36 2025, MaxMem= 30870077440 cpu:           47601.4 elap:             758.1
 (Enter /public/software/gauss/g16/l601.exe)
 Copying SCF densities to generalized density rwf, IOpCl= 0 IROHF=0.

 **********************************************************************

            Population analysis using the SCF density.

 **********************************************************************

 Orbital symmetries:
       Occupied  (A) (A) (A) (A) (A) (A) (A) (A) (A) (A) (A) (A)
                 (A) (A) (A) (A) (A) (A) (A) (A) (A) (A) (A) (A)
                 (A) (A) (A) (A) (A) (A) (A) (A) (A) (A) (A) (A)
                 (A) (A) (A) (A) (A) (A) (A) (A) (A) (A) (A) (A)
                 (A) (A) (A) (A) (A) (A) (A) (A) (A) (A) (A) (A)
                 (A) (A) (A) (A) (A) (A) (A) (A) (A) (A) (A) (A)
                 (A) (A) (A) (A) (A) (A) (A) (A) (A) (A) (A) (A)
                 (A) (A) (A) (A) (A) (A) (A) (A) (A) (A) (A) (A)
                 (A) (A) (A) (A) (A) (A) (A) (A) (A) (A) (A) (A)
                 (A) (A) (A) (A) (A) (A) (A) (A) (A) (A) (A) (A)
                 (A) (A) (A) (A) (A) (A) (A) (A) (A) (A) (A) (A)
                 (A) (A) (A) (A) (A) (A) (A) (A) (A) (A)
       Virtual   (A) (A) (A) (A) (A) (A) (A) (A) (A) (A) (A) (A)
                 (A) (A) (A) (A) (A) (A) (A) (A) (A) (A) (A) (A)
                 (A) (A) (A) (A) (A) (A) (A) (A) (A) (A) (A) (A)
                 (A) (A) (A) (A) (A) (A) (A) (A) (A) (A) (A) (A)
                 (A) (A) (A) (A) (A) (A) (A) (A) (A) (A) (A) (A)
                 (A) (A) (A) (A) (A) (A) (A) (A) (A) (A) (A) (A)
                 (A) (A) (A) (A) (A) (A) (A) (A) (A) (A) (A) (A)
                 (A) (A) (A) (A) (A) (A) (A) (A) (A) (A) (A) (A)
                 (A) (A) (A) (A) (A) (A) (A) (A) (A) (A) (A) (A)
                 (A) (A) (A) (A) (A) (A) (A) (A) (A) (A) (A) (A)
                 (A) (A) (A) (A) (A) (A) (A) (A) (A) (A) (A) (A)
                 (A) (A) (A) (A) (A) (A) (A) (A) (A) (A) (A) (A)
                 (A) (A) (A) (A) (A) (A) (A) (A) (A) (A) (A) (A)
                 (A) (A) (A) (A) (A) (A) (A) (A) (A) (A) (A) (A)
                 (A) (A) (A) (A) (A) (A) (A) (A) (A) (A) (A) (A)
                 (A) (A) (A) (A) (A) (A) (A) (A) (A) (A) (A) (A)
                 (A) (A) (A) (A) (A) (A) (A) (A) (A) (A) (A) (A)
                 (A) (A) (A) (A) (A) (A) (A) (A) (A) (A) (A) (A)
                 (A) (A) (A) (A) (A) (A) (A) (A) (A) (A) (A) (A)
                 (A) (A) (A) (A) (A) (A) (A) (A) (A) (A) (A) (A)
                 (A) (A) (A) (A) (A) (A) (A) (A) (A) (A) (A) (A)
                 (A) (A) (A) (A) (A) (A) (A) (A) (A) (A) (A) (A)
                 (A) (A) (A) (A) (A) (A) (A) (A) (A) (A) (A) (A)
                 (A) (A) (A) (A) (A) (A) (A) (A) (A) (A) (A) (A)
                 (A) (A) (A) (A) (A) (A) (A) (A) (A) (A) (A) (A)
                 (A) (A) (A) (A) (A) (A) (A) (A) (A) (A) (A) (A)
                 (A) (A) (A) (A) (A) (A) (A) (A) (A) (A) (A) (A)
                 (A) (A) (A) (A) (A) (A) (A) (A) (A) (A) (A) (A)
                 (A) (A) (A) (A) (A) (A) (A) (A) (A) (A) (A) (A)
                 (A) (A) (A) (A) (A) (A) (A) (A) (A) (A) (A) (A)
                 (A) (A) (A) (A) (A) (A) (A) (A) (A) (A) (A) (A)
                 (A) (A) (A) (A) (A) (A) (A) (A) (A) (A) (A) (A)
                 (A) (A) (A) (A) (A) (A) (A) (A) (A) (A) (A) (A)
                 (A) (A) (A) (A) (A) (A) (A) (A) (A) (A) (A) (A)
                 (A) (A) (A) (A) (A) (A) (A) (A) (A) (A) (A) (A)
                 (A) (A) (A) (A) (A) (A) (A) (A) (A) (A) (A) (A)
                 (A) (A) (A) (A) (A) (A) (A) (A) (A) (A) (A) (A)
                 (A) (A) (A) (A) (A) (A) (A) (A) (A) (A) (A) (A)
                 (A) (A) (A) (A) (A) (A) (A) (A) (A) (A) (A) (A)
                 (A) (A) (A) (A) (A) (A) (A) (A) (A) (A) (A) (A)
                 (A) (A) (A) (A) (A) (A) (A) (A) (A) (A) (A) (A)
                 (A) (A) (A) (A) (A) (A) (A) (A) (A) (A) (A) (A)
                 (A) (A) (A) (A) (A) (A) (A) (A) (A) (A) (A) (A)
                 (A) (A) (A) (A) (A) (A) (A) (A) (A) (A) (A) (A)
                 (A) (A) (A) (A) (A) (A) (A) (A) (A) (A) (A) (A)
                 (A) (A) (A) (A) (A) (A) (A) (A) (A) (A) (A) (A)
                 (A) (A) (A) (A) (A) (A) (A) (A) (A) (A) (A) (A)
                 (A) (A) (A) (A) (A) (A) (A) (A) (A) (A) (A) (A)
                 (A) (A) (A) (A) (A) (A) (A) (A) (A) (A) (A) (A)
                 (A) (A) (A) (A) (A) (A) (A) (A) (A) (A) (A) (A)
                 (A) (A) (A) (A) (A) (A) (A) (A) (A) (A) (A) (A)
                 (A) (A) (A) (A) (A) (A) (A) (A) (A) (A) (A) (A)
                 (A) (A) (A) (A) (A) (A) (A) (A) (A) (A) (A) (A)
                 (A) (A) (A) (A) (A) (A) (A) (A) (A) (A) (A) (A)
                 (A) (A) (A) (A) (A) (A) (A) (A) (A) (A) (A) (A)
                 (A) (A) (A) (A) (A) (A) (A) (A) (A) (A) (A) (A)
                 (A) (A) (A) (A) (A) (A) (A) (A) (A) (A) (A) (A)
                 (A) (A) (A) (A) (A) (A) (A) (A) (A) (A) (A) (A)
                 (A) (A) (A) (A) (A) (A) (A) (A) (A) (A) (A) (A)
                 (A) (A) (A) (A) (A) (A) (A) (A) (A) (A) (A) (A)
                 (A) (A) (A) (A) (A) (A) (A) (A) (A) (A) (A) (A)
                 (A) (A) (A) (A) (A) (A) (A) (A) (A) (A) (A) (A)
                 (A) (A) (A) (A) (A) (A) (A) (A) (A) (A) (A) (A)
                 (A) (A) (A) (A) (A) (A) (A) (A) (A) (A) (A) (A)
                 (A) (A) (A) (A) (A) (A) (A) (A) (A) (A) (A) (A)
                 (A) (A) (A) (A) (A) (A) (A) (A) (A) (A) (A) (A)
                 (A) (A) (A) (A) (A) (A) (A) (A) (A) (A) (A) (A)
                 (A) (A) (A) (A) (A) (A) (A) (A) (A) (A) (A) (A)
                 (A) (A) (A) (A) (A) (A) (A) (A) (A) (A) (A) (A)
                 (A) (A) (A) (A) (A) (A) (A) (A) (A) (A) (A) (A)
                 (A) (A) (A) (A) (A) (A) (A) (A) (A) (A) (A) (A)
                 (A) (A) (A) (A) (A) (A) (A) (A) (A) (A) (A) (A)
                 (A) (A) (A) (A) (A) (A) (A) (A) (A) (A) (A) (A)
                 (A) (A) (A) (A) (A) (A) (A) (A) (A) (A) (A) (A)
                 (A) (A) (A) (A) (A) (A) (A) (A) (A) (A) (A) (A)
                 (A) (A) (A) (A) (A) (A) (A) (A) (A) (A) (A) (A)
                 (A) (A) (A) (A) (A) (A) (A) (A) (A) (A) (A) (A)
                 (A) (A) (A) (A) (A) (A) (A) (A) (A) (A) (A) (A)
                 (A) (A) (A) (A) (A) (A) (A) (A) (A) (A) (A) (A)
                 (A) (A) (A) (A) (A) (A) (A) (A) (A) (A) (A) (A)
                 (A) (A) (A) (A) (A) (A) (A) (A) (A) (A) (A) (A)
                 (A) (A) (A) (A) (A) (A) (A) (A) (A) (A) (A) (A)
                 (A) (A) (A) (A) (A) (A) (A) (A) (A) (A) (A) (A)
                 (A) (A) (A) (A) (A) (A) (A) (A) (A) (A) (A) (A)
                 (A) (A) (A) (A) (A) (A) (A) (A) (A) (A) (A) (A)
                 (A) (A) (A) (A) (A) (A) (A) (A) (A) (A) (A) (A)
                 (A) (A) (A) (A) (A) (A) (A) (A) (A) (A) (A) (A)
                 (A) (A) (A) (A) (A) (A) (A) (A) (A) (A) (A) (A)
                 (A) (A) (A) (A) (A) (A) (A) (A) (A) (A) (A) (A)
                 (A) (A) (A) (A) (A) (A) (A) (A) (A) (A) (A) (A)
                 (A) (A) (A) (A) (A) (A) (A) (A) (A) (A) (A) (A)
                 (A) (A) (A) (A) (A) (A) (A) (A) (A) (A) (A) (A)
                 (A) (A) (A) (A) (A) (A) (A) (A) (A) (A) (A) (A)
                 (A) (A) (A) (A) (A) (A) (A) (A) (A) (A) (A) (A)
                 (A) (A) (A) (A) (A) (A) (A) (A) (A) (A) (A) (A)
                 (A) (A) (A) (A) (A) (A) (A) (A) (A) (A) (A) (A)
                 (A) (A) (A) (A) (A) (A) (A) (A) (A) (A) (A) (A)
                 (A) (A) (A) (A) (A) (A) (A) (A) (A) (A) (A) (A)
                 (A) (A) (A) (A) (A) (A) (A) (A) (A) (A) (A) (A)
                 (A) (A) (A) (A) (A) (A) (A) (A) (A) (A) (A) (A)
                 (A) (A) (A) (A) (A) (A) (A) (A) (A) (A) (A) (A)
                 (A) (A) (A) (A) (A) (A) (A) (A) (A) (A) (A) (A)
                 (A) (A) (A) (A) (A) (A) (A) (A) (A) (A) (A) (A)
                 (A) (A) (A) (A) (A) (A) (A) (A) (A) (A) (A) (A)
                 (A) (A) (A) (A) (A) (A) (A) (A) (A) (A) (A) (A)
                 (A) (A) (A) (A) (A) (A) (A) (A) (A) (A) (A) (A)
                 (A) (A) (A) (A) (A) (A) (A) (A) (A) (A) (A) (A)
                 (A) (A) (A) (A) (A) (A) (A) (A) (A) (A) (A) (A)
                 (A) (A) (A) (A) (A) (A) (A) (A) (A) (A) (A) (A)
                 (A) (A) (A) (A) (A) (A) (A) (A) (A) (A) (A) (A)
                 (A) (A) (A) (A) (A) (A) (A) (A) (A) (A) (A) (A)
                 (A) (A) (A) (A) (A) (A) (A) (A) (A) (A) (A) (A)
                 (A) (A) (A) (A) (A) (A) (A) (A) (A) (A) (A) (A)
                 (A) (A) (A) (A) (A) (A) (A) (A) (A) (A) (A) (A)
                 (A) (A) (A) (A) (A) (A) (A) (A) (A) (A) (A) (A)
                 (A) (A) (A) (A) (A) (A) (A) (A) (A) (A) (A) (A)
                 (A) (A) (A) (A) (A) (A) (A) (A) (A) (A) (A) (A)
                 (A) (A) (A) (A) (A) (A) (A) (A) (A) (A) (A) (A)
                 (A) (A) (A) (A) (A) (A) (A) (A) (A) (A) (A) (A)
                 (A) (A) (A) (A) (A) (A) (A) (A) (A) (A) (A) (A)
                 (A) (A) (A) (A) (A) (A) (A) (A) (A) (A) (A) (A)
                 (A) (A) (A) (A) (A) (A) (A) (A) (A) (A) (A) (A)
                 (A) (A) (A) (A) (A) (A) (A) (A) (A) (A) (A) (A)
                 (A) (A) (A) (A) (A) (A) (A) (A) (A) (A) (A) (A)
                 (A) (A) (A) (A) (A) (A) (A) (A) (A) (A) (A) (A)
                 (A) (A) (A) (A) (A) (A) (A) (A) (A) (A) (A) (A)
                 (A) (A) (A) (A) (A) (A) (A) (A) (A) (A) (A) (A)
                 (A) (A) (A) (A) (A) (A) (A) (A)
 The electronic state is 1-A.
 Alpha  occ. eigenvalues --  -25.20191 -25.20090 -19.67049 -14.93915 -14.83396
 Alpha  occ. eigenvalues --  -14.80306 -14.78137 -14.77640 -14.77639 -10.61947
 Alpha  occ. eigenvalues --  -10.60663 -10.60403 -10.59803 -10.59691 -10.59526
 Alpha  occ. eigenvalues --  -10.59452 -10.58635 -10.58112 -10.57018 -10.56720
 Alpha  occ. eigenvalues --  -10.56710 -10.56541 -10.56506 -10.56394 -10.56000
 Alpha  occ. eigenvalues --  -10.55937 -10.55505 -10.55350 -10.55293 -10.55270
 Alpha  occ. eigenvalues --  -10.55181 -10.55132 -10.54552 -10.54347 -10.54174
 Alpha  occ. eigenvalues --  -10.54069 -10.53909 -10.53705 -10.53356  -7.12745
 Alpha  occ. eigenvalues --   -1.32009  -1.28757  -1.26537  -1.20072  -1.10177
 Alpha  occ. eigenvalues --   -1.08920  -1.08247  -1.06456  -0.98053  -0.96426
 Alpha  occ. eigenvalues --   -0.93230  -0.91135  -0.90618  -0.89780  -0.89288
 Alpha  occ. eigenvalues --   -0.86033  -0.85821  -0.85497  -0.85279  -0.82436
 Alpha  occ. eigenvalues --   -0.81481  -0.80760  -0.79999  -0.78501  -0.76516
 Alpha  occ. eigenvalues --   -0.75730  -0.72356  -0.70681  -0.70173  -0.69507
 Alpha  occ. eigenvalues --   -0.68909  -0.67220  -0.65535  -0.64498  -0.63986
 Alpha  occ. eigenvalues --   -0.63167  -0.62913  -0.62463  -0.60900  -0.60284
 Alpha  occ. eigenvalues --   -0.60219  -0.60051  -0.59308  -0.58010  -0.57443
 Alpha  occ. eigenvalues --   -0.56403  -0.55927  -0.55559  -0.55255  -0.54370
 Alpha  occ. eigenvalues --   -0.54061  -0.53928  -0.52818  -0.52610  -0.52481
 Alpha  occ. eigenvalues --   -0.52289  -0.51819  -0.51332  -0.50324  -0.50141
 Alpha  occ. eigenvalues --   -0.49585  -0.49478  -0.49190  -0.49137  -0.48917
 Alpha  occ. eigenvalues --   -0.48558  -0.48004  -0.47903  -0.47411  -0.47165
 Alpha  occ. eigenvalues --   -0.47126  -0.46712  -0.46477  -0.46401  -0.46006
 Alpha  occ. eigenvalues --   -0.45832  -0.45577  -0.45000  -0.44909  -0.44409
 Alpha  occ. eigenvalues --   -0.44377  -0.43955  -0.43478  -0.43034  -0.42547
 Alpha  occ. eigenvalues --   -0.41598  -0.40780  -0.40665  -0.39600  -0.39435
 Alpha  occ. eigenvalues --   -0.39103  -0.37062  -0.36081  -0.32455  -0.32271
 Alpha  occ. eigenvalues --   -0.32054  -0.31913  -0.31856  -0.30653  -0.29074
 Alpha  occ. eigenvalues --   -0.26577  -0.22819
 Alpha virt. eigenvalues --   -0.08498  -0.01960   0.00267   0.00919   0.01465
 Alpha virt. eigenvalues --    0.01495   0.04529   0.05677   0.05874   0.06252
 Alpha virt. eigenvalues --    0.07070   0.07372   0.08119   0.08583   0.08743
 Alpha virt. eigenvalues --    0.09061   0.09183   0.09682   0.09865   0.10308
 Alpha virt. eigenvalues --    0.10469   0.11025   0.11105   0.11319   0.11777
 Alpha virt. eigenvalues --    0.11914   0.11973   0.12803   0.13353   0.13551
 Alpha virt. eigenvalues --    0.13655   0.13901   0.14221   0.14439   0.14689
 Alpha virt. eigenvalues --    0.15088   0.15153   0.15220   0.15455   0.15665
 Alpha virt. eigenvalues --    0.16274   0.16318   0.16675   0.16788   0.17091
 Alpha virt. eigenvalues --    0.17348   0.17667   0.17900   0.18049   0.18425
 Alpha virt. eigenvalues --    0.18664   0.18770   0.18848   0.19107   0.19372
 Alpha virt. eigenvalues --    0.19573   0.19926   0.20367   0.21101   0.21434
 Alpha virt. eigenvalues --    0.21449   0.21710   0.21985   0.22216   0.22662
 Alpha virt. eigenvalues --    0.22784   0.23043   0.23550   0.23768   0.24244
 Alpha virt. eigenvalues --    0.24441   0.24750   0.25046   0.25322   0.25599
 Alpha virt. eigenvalues --    0.25803   0.26057   0.26376   0.26747   0.27267
 Alpha virt. eigenvalues --    0.27398   0.27493   0.27926   0.28172   0.28550
 Alpha virt. eigenvalues --    0.28688   0.29113   0.29472   0.29723   0.30553
 Alpha virt. eigenvalues --    0.30673   0.30795   0.30921   0.31240   0.31674
 Alpha virt. eigenvalues --    0.31872   0.32242   0.32384   0.32623   0.32966
 Alpha virt. eigenvalues --    0.33063   0.33196   0.33489   0.33909   0.34067
 Alpha virt. eigenvalues --    0.34248   0.34382   0.34548   0.34920   0.35063
 Alpha virt. eigenvalues --    0.35181   0.35544   0.35601   0.35759   0.36220
 Alpha virt. eigenvalues --    0.36351   0.36633   0.36821   0.37287   0.37429
 Alpha virt. eigenvalues --    0.37735   0.37894   0.38053   0.38341   0.38681
 Alpha virt. eigenvalues --    0.38989   0.39172   0.39489   0.39552   0.39801
 Alpha virt. eigenvalues --    0.39869   0.40054   0.40330   0.40634   0.40955
 Alpha virt. eigenvalues --    0.41246   0.41478   0.41695   0.41741   0.41943
 Alpha virt. eigenvalues --    0.42239   0.42671   0.42807   0.42998   0.43163
 Alpha virt. eigenvalues --    0.43317   0.43804   0.44189   0.44246   0.44500
 Alpha virt. eigenvalues --    0.44745   0.44918   0.45149   0.45450   0.45892
 Alpha virt. eigenvalues --    0.46059   0.46367   0.46459   0.46749   0.46978
 Alpha virt. eigenvalues --    0.47411   0.47607   0.47841   0.47856   0.48129
 Alpha virt. eigenvalues --    0.48310   0.48484   0.48937   0.49056   0.49245
 Alpha virt. eigenvalues --    0.49684   0.50034   0.50198   0.50701   0.50813
 Alpha virt. eigenvalues --    0.50895   0.51097   0.51204   0.51396   0.51657
 Alpha virt. eigenvalues --    0.51750   0.51837   0.52201   0.52221   0.52302
 Alpha virt. eigenvalues --    0.52719   0.52884   0.53031   0.53291   0.53549
 Alpha virt. eigenvalues --    0.53779   0.54165   0.54236   0.54361   0.54485
 Alpha virt. eigenvalues --    0.54745   0.55598   0.56002   0.56513   0.56721
 Alpha virt. eigenvalues --    0.56903   0.57236   0.57642   0.58103   0.58285
 Alpha virt. eigenvalues --    0.58559   0.58786   0.58954   0.59438   0.60052
 Alpha virt. eigenvalues --    0.60379   0.60689   0.60877   0.61183   0.61478
 Alpha virt. eigenvalues --    0.61893   0.62081   0.62812   0.63535   0.63598
 Alpha virt. eigenvalues --    0.64137   0.64416   0.64481   0.64951   0.65272
 Alpha virt. eigenvalues --    0.65475   0.65747   0.65926   0.66130   0.66699
 Alpha virt. eigenvalues --    0.66898   0.67034   0.67516   0.68024   0.68182
 Alpha virt. eigenvalues --    0.68519   0.68698   0.68840   0.68928   0.69224
 Alpha virt. eigenvalues --    0.69338   0.69723   0.69948   0.70601   0.70777
 Alpha virt. eigenvalues --    0.71282   0.71495   0.71999   0.72170   0.72497
 Alpha virt. eigenvalues --    0.72867   0.73015   0.73641   0.73805   0.74163
 Alpha virt. eigenvalues --    0.74207   0.74503   0.74940   0.75033   0.75576
 Alpha virt. eigenvalues --    0.75771   0.76258   0.76601   0.76908   0.77081
 Alpha virt. eigenvalues --    0.77558   0.77811   0.77982   0.78710   0.79076
 Alpha virt. eigenvalues --    0.79309   0.79682   0.79841   0.79985   0.80632
 Alpha virt. eigenvalues --    0.81061   0.81320   0.81430   0.81716   0.82435
 Alpha virt. eigenvalues --    0.82893   0.83128   0.83189   0.83487   0.83749
 Alpha virt. eigenvalues --    0.84185   0.84681   0.85078   0.85451   0.85711
 Alpha virt. eigenvalues --    0.86006   0.86368   0.86824   0.87072   0.87158
 Alpha virt. eigenvalues --    0.87346   0.87813   0.88404   0.88645   0.88958
 Alpha virt. eigenvalues --    0.89218   0.89433   0.90180   0.90486   0.90857
 Alpha virt. eigenvalues --    0.91225   0.92162   0.92400   0.92749   0.93304
 Alpha virt. eigenvalues --    0.93616   0.93892   0.94178   0.94419   0.94905
 Alpha virt. eigenvalues --    0.95043   0.95373   0.95514   0.95897   0.96265
 Alpha virt. eigenvalues --    0.96514   0.96812   0.97296   0.97572   0.98021
 Alpha virt. eigenvalues --    0.98570   0.98718   0.99058   0.99198   0.99396
 Alpha virt. eigenvalues --    0.99911   1.00011   1.00225   1.00653   1.00970
 Alpha virt. eigenvalues --    1.01207   1.01350   1.01527   1.01687   1.02033
 Alpha virt. eigenvalues --    1.02431   1.02822   1.03056   1.03514   1.03895
 Alpha virt. eigenvalues --    1.04291   1.04649   1.04854   1.04950   1.05711
 Alpha virt. eigenvalues --    1.06061   1.06203   1.06670   1.07257   1.07415
 Alpha virt. eigenvalues --    1.07713   1.08108   1.08332   1.08694   1.09190
 Alpha virt. eigenvalues --    1.09504   1.09633   1.09964   1.10068   1.10470
 Alpha virt. eigenvalues --    1.10684   1.10900   1.11167   1.11346   1.11750
 Alpha virt. eigenvalues --    1.11925   1.12033   1.12580   1.12602   1.13111
 Alpha virt. eigenvalues --    1.13258   1.13443   1.13757   1.14023   1.14480
 Alpha virt. eigenvalues --    1.15113   1.15524   1.15761   1.16129   1.16438
 Alpha virt. eigenvalues --    1.16756   1.17437   1.17699   1.18308   1.18429
 Alpha virt. eigenvalues --    1.19022   1.19220   1.19946   1.20545   1.20956
 Alpha virt. eigenvalues --    1.21028   1.21355   1.22041   1.22585   1.22598
 Alpha virt. eigenvalues --    1.23043   1.23343   1.23621   1.24242   1.24728
 Alpha virt. eigenvalues --    1.24892   1.25147   1.25495   1.25644   1.26017
 Alpha virt. eigenvalues --    1.26299   1.26999   1.27148   1.27845   1.28159
 Alpha virt. eigenvalues --    1.28345   1.28614   1.28904   1.29164   1.29393
 Alpha virt. eigenvalues --    1.29810   1.29997   1.30308   1.30764   1.30900
 Alpha virt. eigenvalues --    1.31232   1.31419   1.31883   1.32549   1.32668
 Alpha virt. eigenvalues --    1.33044   1.33403   1.33664   1.34015   1.34612
 Alpha virt. eigenvalues --    1.34905   1.35220   1.35534   1.36319   1.36788
 Alpha virt. eigenvalues --    1.37258   1.37641   1.38079   1.38457   1.38732
 Alpha virt. eigenvalues --    1.38926   1.39381   1.39604   1.40175   1.40230
 Alpha virt. eigenvalues --    1.41346   1.41652   1.42223   1.42540   1.42681
 Alpha virt. eigenvalues --    1.42885   1.43105   1.43665   1.44065   1.44588
 Alpha virt. eigenvalues --    1.44876   1.45036   1.45429   1.45786   1.46036
 Alpha virt. eigenvalues --    1.46306   1.46714   1.46750   1.47435   1.47912
 Alpha virt. eigenvalues --    1.48034   1.48165   1.48553   1.48732   1.49063
 Alpha virt. eigenvalues --    1.49351   1.49657   1.50139   1.50168   1.50448
 Alpha virt. eigenvalues --    1.50509   1.50666   1.50867   1.51228   1.51847
 Alpha virt. eigenvalues --    1.52215   1.52582   1.52799   1.53207   1.53410
 Alpha virt. eigenvalues --    1.53763   1.54010   1.54336   1.54731   1.54841
 Alpha virt. eigenvalues --    1.55150   1.55626   1.55838   1.55958   1.56388
 Alpha virt. eigenvalues --    1.56441   1.56689   1.56903   1.57362   1.57754
 Alpha virt. eigenvalues --    1.58376   1.58518   1.58944   1.59410   1.59505
 Alpha virt. eigenvalues --    1.59962   1.60051   1.60420   1.60726   1.60745
 Alpha virt. eigenvalues --    1.61102   1.61470   1.62150   1.62284   1.62642
 Alpha virt. eigenvalues --    1.62909   1.63146   1.63721   1.63820   1.64479
 Alpha virt. eigenvalues --    1.64770   1.65432   1.65906   1.66131   1.66886
 Alpha virt. eigenvalues --    1.67286   1.67632   1.68015   1.68466   1.68635
 Alpha virt. eigenvalues --    1.69234   1.69693   1.70099   1.70524   1.70728
 Alpha virt. eigenvalues --    1.70996   1.71817   1.72098   1.72369   1.73130
 Alpha virt. eigenvalues --    1.73892   1.74616   1.74796   1.75089   1.75431
 Alpha virt. eigenvalues --    1.75908   1.76257   1.76855   1.77198   1.78106
 Alpha virt. eigenvalues --    1.78609   1.78999   1.79974   1.80323   1.80674
 Alpha virt. eigenvalues --    1.81041   1.81398   1.81918   1.82056   1.83165
 Alpha virt. eigenvalues --    1.83564   1.84201   1.84592   1.84864   1.85127
 Alpha virt. eigenvalues --    1.85365   1.86119   1.86741   1.87774   1.87984
 Alpha virt. eigenvalues --    1.88328   1.88805   1.89668   1.89985   1.90555
 Alpha virt. eigenvalues --    1.91551   1.91795   1.92034   1.93271   1.93413
 Alpha virt. eigenvalues --    1.93812   1.94506   1.94707   1.95859   1.96591
 Alpha virt. eigenvalues --    1.96930   1.97557   1.98184   1.98592   1.99104
 Alpha virt. eigenvalues --    1.99327   1.99698   1.99746   2.01027   2.01565
 Alpha virt. eigenvalues --    2.01873   2.01962   2.02575   2.03003   2.03994
 Alpha virt. eigenvalues --    2.04572   2.04815   2.05480   2.05962   2.06679
 Alpha virt. eigenvalues --    2.07200   2.07736   2.08345   2.08475   2.08709
 Alpha virt. eigenvalues --    2.09312   2.09638   2.09835   2.10478   2.10871
 Alpha virt. eigenvalues --    2.11115   2.11401   2.12109   2.12546   2.12844
 Alpha virt. eigenvalues --    2.13062   2.14204   2.15449   2.16332   2.17170
 Alpha virt. eigenvalues --    2.17948   2.18330   2.18909   2.19684   2.20100
 Alpha virt. eigenvalues --    2.20980   2.21136   2.21611   2.22629   2.23143
 Alpha virt. eigenvalues --    2.23713   2.24172   2.24378   2.24871   2.25327
 Alpha virt. eigenvalues --    2.26357   2.26581   2.27536   2.28314   2.28524
 Alpha virt. eigenvalues --    2.29137   2.29651   2.30489   2.31525   2.32182
 Alpha virt. eigenvalues --    2.32698   2.33254   2.34526   2.34704   2.34880
 Alpha virt. eigenvalues --    2.35056   2.35271   2.36022   2.36452   2.37040
 Alpha virt. eigenvalues --    2.37386   2.37620   2.38233   2.38515   2.38978
 Alpha virt. eigenvalues --    2.39779   2.40708   2.41774   2.41989   2.42568
 Alpha virt. eigenvalues --    2.42787   2.43646   2.44606   2.44879   2.45792
 Alpha virt. eigenvalues --    2.46723   2.47120   2.47583   2.48457   2.48725
 Alpha virt. eigenvalues --    2.49133   2.49700   2.49890   2.50288   2.51460
 Alpha virt. eigenvalues --    2.51825   2.52596   2.53122   2.53701   2.55026
 Alpha virt. eigenvalues --    2.55804   2.56316   2.56930   2.57343   2.57720
 Alpha virt. eigenvalues --    2.57998   2.58521   2.59000   2.59336   2.60159
 Alpha virt. eigenvalues --    2.61170   2.61606   2.61660   2.62531   2.62746
 Alpha virt. eigenvalues --    2.63581   2.64049   2.64320   2.64449   2.64607
 Alpha virt. eigenvalues --    2.65068   2.65700   2.66479   2.67112   2.67839
 Alpha virt. eigenvalues --    2.68921   2.69028   2.69632   2.70155   2.70427
 Alpha virt. eigenvalues --    2.70967   2.70996   2.71748   2.72021   2.72316
 Alpha virt. eigenvalues --    2.72639   2.73177   2.73477   2.73657   2.74196
 Alpha virt. eigenvalues --    2.74631   2.74957   2.75188   2.75386   2.75506
 Alpha virt. eigenvalues --    2.76130   2.76655   2.76806   2.77251   2.77323
 Alpha virt. eigenvalues --    2.77844   2.77985   2.78190   2.78443   2.78736
 Alpha virt. eigenvalues --    2.79401   2.79703   2.80375   2.80692   2.81185
 Alpha virt. eigenvalues --    2.81656   2.81830   2.81995   2.82735   2.82937
 Alpha virt. eigenvalues --    2.83000   2.83690   2.83933   2.84455   2.84567
 Alpha virt. eigenvalues --    2.85036   2.85121   2.85517   2.86268   2.86587
 Alpha virt. eigenvalues --    2.86987   2.87212   2.87729   2.88223   2.88735
 Alpha virt. eigenvalues --    2.88945   2.89139   2.89292   2.89595   2.89967
 Alpha virt. eigenvalues --    2.90348   2.91131   2.91308   2.91596   2.91729
 Alpha virt. eigenvalues --    2.92140   2.92481   2.92627   2.93087   2.93138
 Alpha virt. eigenvalues --    2.93548   2.94221   2.94775   2.95143   2.95381
 Alpha virt. eigenvalues --    2.95543   2.96125   2.96426   2.96444   2.97273
 Alpha virt. eigenvalues --    2.97474   2.98309   2.98555   2.98748   2.99111
 Alpha virt. eigenvalues --    2.99277   2.99603   3.00068   3.00344   3.00601
 Alpha virt. eigenvalues --    3.01201   3.01486   3.01689   3.02170   3.02391
 Alpha virt. eigenvalues --    3.02595   3.02853   3.03419   3.03486   3.03505
 Alpha virt. eigenvalues --    3.04022   3.04324   3.04632   3.04818   3.05097
 Alpha virt. eigenvalues --    3.05432   3.05662   3.05871   3.05892   3.06208
 Alpha virt. eigenvalues --    3.06449   3.06625   3.06715   3.06949   3.07398
 Alpha virt. eigenvalues --    3.07744   3.07868   3.08593   3.08910   3.09033
 Alpha virt. eigenvalues --    3.09311   3.09542   3.09653   3.09759   3.09986
 Alpha virt. eigenvalues --    3.10325   3.10523   3.10832   3.11157   3.11509
 Alpha virt. eigenvalues --    3.11954   3.12248   3.12579   3.12897   3.13841
 Alpha virt. eigenvalues --    3.14248   3.14579   3.14775   3.14915   3.15297
 Alpha virt. eigenvalues --    3.15541   3.15814   3.16500   3.16764   3.16871
 Alpha virt. eigenvalues --    3.17078   3.17471   3.18419   3.18500   3.18841
 Alpha virt. eigenvalues --    3.19055   3.19509   3.19875   3.20215   3.20365
 Alpha virt. eigenvalues --    3.20730   3.20829   3.21507   3.21944   3.22001
 Alpha virt. eigenvalues --    3.22232   3.22734   3.22986   3.23496   3.23634
 Alpha virt. eigenvalues --    3.24097   3.24484   3.25067   3.25193   3.25626
 Alpha virt. eigenvalues --    3.25654   3.26453   3.26678   3.27053   3.27240
 Alpha virt. eigenvalues --    3.27530   3.27710   3.28279   3.28646   3.28996
 Alpha virt. eigenvalues --    3.29590   3.29829   3.30240   3.31032   3.31148
 Alpha virt. eigenvalues --    3.31290   3.31748   3.32006   3.32221   3.32675
 Alpha virt. eigenvalues --    3.32975   3.33215   3.33635   3.33802   3.34044
 Alpha virt. eigenvalues --    3.34311   3.34652   3.35099   3.35219   3.35608
 Alpha virt. eigenvalues --    3.35948   3.36606   3.36879   3.37108   3.37396
 Alpha virt. eigenvalues --    3.37660   3.37854   3.38169   3.38564   3.38641
 Alpha virt. eigenvalues --    3.38730   3.39197   3.39798   3.40218   3.40452
 Alpha virt. eigenvalues --    3.40571   3.41154   3.41518   3.41824   3.42005
 Alpha virt. eigenvalues --    3.42489   3.42549   3.43291   3.43536   3.44082
 Alpha virt. eigenvalues --    3.44390   3.45181   3.45327   3.45657   3.45862
 Alpha virt. eigenvalues --    3.46100   3.46866   3.47387   3.47818   3.48282
 Alpha virt. eigenvalues --    3.48639   3.48848   3.49022   3.49341   3.49970
 Alpha virt. eigenvalues --    3.50149   3.50492   3.50903   3.51251   3.51466
 Alpha virt. eigenvalues --    3.51835   3.52244   3.52304   3.52421   3.52620
 Alpha virt. eigenvalues --    3.53207   3.53476   3.53576   3.53756   3.54040
 Alpha virt. eigenvalues --    3.54146   3.54616   3.55164   3.55295   3.55846
 Alpha virt. eigenvalues --    3.56351   3.56525   3.57057   3.57235   3.57660
 Alpha virt. eigenvalues --    3.57914   3.58301   3.58429   3.58797   3.59485
 Alpha virt. eigenvalues --    3.59707   3.60176   3.60339   3.60858   3.61957
 Alpha virt. eigenvalues --    3.62172   3.62475   3.62507   3.62650   3.63385
 Alpha virt. eigenvalues --    3.63778   3.64104   3.64351   3.64462   3.64834
 Alpha virt. eigenvalues --    3.65150   3.65565   3.65950   3.66125   3.66499
 Alpha virt. eigenvalues --    3.67048   3.67353   3.67683   3.67827   3.67900
 Alpha virt. eigenvalues --    3.68227   3.69566   3.70021   3.70273   3.70479
 Alpha virt. eigenvalues --    3.71303   3.71623   3.72300   3.72402   3.72725
 Alpha virt. eigenvalues --    3.72847   3.73026   3.73462   3.74206   3.74511
 Alpha virt. eigenvalues --    3.74683   3.75482   3.75973   3.76332   3.76759
 Alpha virt. eigenvalues --    3.77162   3.77251   3.77283   3.77544   3.78185
 Alpha virt. eigenvalues --    3.78341   3.78903   3.79218   3.79651   3.80026
 Alpha virt. eigenvalues --    3.80570   3.80787   3.81321   3.81826   3.81992
 Alpha virt. eigenvalues --    3.82829   3.83088   3.83403   3.83654   3.84222
 Alpha virt. eigenvalues --    3.84673   3.85045   3.85406   3.85839   3.86261
 Alpha virt. eigenvalues --    3.86614   3.86660   3.87227   3.87374   3.88215
 Alpha virt. eigenvalues --    3.88393   3.88451   3.88747   3.89088   3.89349
 Alpha virt. eigenvalues --    3.89555   3.90046   3.90238   3.90688   3.90957
 Alpha virt. eigenvalues --    3.91144   3.91349   3.91901   3.92542   3.92702
 Alpha virt. eigenvalues --    3.93470   3.93826   3.94162   3.94373   3.94957
 Alpha virt. eigenvalues --    3.95346   3.95648   3.96080   3.96473   3.96725
 Alpha virt. eigenvalues --    3.97360   3.97470   3.98249   3.98536   3.98726
 Alpha virt. eigenvalues --    3.99345   3.99661   3.99830   4.00481   4.00862
 Alpha virt. eigenvalues --    4.01478   4.01563   4.01845   4.01963   4.02581
 Alpha virt. eigenvalues --    4.02760   4.03298   4.03574   4.03842   4.04039
 Alpha virt. eigenvalues --    4.04364   4.04605   4.05194   4.05432   4.05978
 Alpha virt. eigenvalues --    4.06039   4.06570   4.06811   4.07051   4.07069
 Alpha virt. eigenvalues --    4.07597   4.08032   4.08403   4.08434   4.08654
 Alpha virt. eigenvalues --    4.09376   4.09490   4.09560   4.09955   4.10199
 Alpha virt. eigenvalues --    4.10568   4.11091   4.11354   4.11663   4.11891
 Alpha virt. eigenvalues --    4.12718   4.13251   4.13333   4.13417   4.13974
 Alpha virt. eigenvalues --    4.14372   4.14991   4.15179   4.15504   4.15785
 Alpha virt. eigenvalues --    4.16078   4.16266   4.16742   4.17197   4.17460
 Alpha virt. eigenvalues --    4.17828   4.18071   4.18245   4.18810   4.19186
 Alpha virt. eigenvalues --    4.19429   4.20022   4.20611   4.20744   4.21342
 Alpha virt. eigenvalues --    4.21493   4.22436   4.23001   4.23270   4.23535
 Alpha virt. eigenvalues --    4.23960   4.24466   4.24554   4.24648   4.24878
 Alpha virt. eigenvalues --    4.25169   4.25254   4.25758   4.26436   4.26645
 Alpha virt. eigenvalues --    4.27189   4.27899   4.28292   4.29198   4.29496
 Alpha virt. eigenvalues --    4.30004   4.30262   4.30381   4.30954   4.31107
 Alpha virt. eigenvalues --    4.31614   4.32142   4.32211   4.32776   4.33276
 Alpha virt. eigenvalues --    4.33370   4.33924   4.34580   4.35082   4.35518
 Alpha virt. eigenvalues --    4.35806   4.36735   4.37232   4.38254   4.38374
 Alpha virt. eigenvalues --    4.38729   4.39294   4.39936   4.40705   4.41511
 Alpha virt. eigenvalues --    4.41763   4.42402   4.43053   4.43951   4.43998
 Alpha virt. eigenvalues --    4.44259   4.45193   4.46009   4.46096   4.46617
 Alpha virt. eigenvalues --    4.47140   4.48297   4.48716   4.49310   4.50366
 Alpha virt. eigenvalues --    4.50646   4.51472   4.51699   4.51807   4.52482
 Alpha virt. eigenvalues --    4.52969   4.53325   4.53585   4.53970   4.54737
 Alpha virt. eigenvalues --    4.55612   4.56370   4.56887   4.58330   4.58935
 Alpha virt. eigenvalues --    4.59593   4.60317   4.60867   4.61063   4.61415
 Alpha virt. eigenvalues --    4.61889   4.62541   4.62728   4.63305   4.63587
 Alpha virt. eigenvalues --    4.64247   4.64354   4.64784   4.65581   4.66208
 Alpha virt. eigenvalues --    4.66419   4.68006   4.68238   4.68797   4.69489
 Alpha virt. eigenvalues --    4.69997   4.70502   4.70717   4.70817   4.70931
 Alpha virt. eigenvalues --    4.71333   4.71736   4.72555   4.72859   4.73462
 Alpha virt. eigenvalues --    4.74742   4.74970   4.75847   4.76310   4.76407
 Alpha virt. eigenvalues --    4.76861   4.78551   4.79033   4.79685   4.80563
 Alpha virt. eigenvalues --    4.81463   4.81530   4.82788   4.83711   4.85025
 Alpha virt. eigenvalues --    4.85780   4.86243   4.86419   4.87013   4.87729
 Alpha virt. eigenvalues --    4.88791   4.88982   4.89853   4.90161   4.91003
 Alpha virt. eigenvalues --    4.91395   4.91944   4.92254   4.92560   4.92772
 Alpha virt. eigenvalues --    4.93448   4.94072   4.94531   4.94641   4.95681
 Alpha virt. eigenvalues --    4.96516   4.96899   4.97406   4.97712   4.98513
 Alpha virt. eigenvalues --    4.98772   5.00145   5.00273   5.01246   5.01446
 Alpha virt. eigenvalues --    5.01681   5.01826   5.02367   5.03729   5.03849
 Alpha virt. eigenvalues --    5.03931   5.04837   5.05136   5.05380   5.05501
 Alpha virt. eigenvalues --    5.06531   5.06748   5.07662   5.08235   5.09257
 Alpha virt. eigenvalues --    5.09418   5.09869   5.10549   5.10834   5.11316
 Alpha virt. eigenvalues --    5.12045   5.13031   5.13686   5.14090   5.14656
 Alpha virt. eigenvalues --    5.15072   5.15812   5.16028   5.16495   5.17576
 Alpha virt. eigenvalues --    5.17712   5.17763   5.18939   5.19723   5.19855
 Alpha virt. eigenvalues --    5.21307   5.21638   5.21855   5.22483   5.23407
 Alpha virt. eigenvalues --    5.23768   5.24520   5.25420   5.25705   5.26447
 Alpha virt. eigenvalues --    5.26930   5.27172   5.28361   5.28854   5.28987
 Alpha virt. eigenvalues --    5.29264   5.29953   5.30396   5.31356   5.31611
 Alpha virt. eigenvalues --    5.32085   5.32762   5.33381   5.34087   5.34231
 Alpha virt. eigenvalues --    5.34684   5.35638   5.36212   5.36706   5.36834
 Alpha virt. eigenvalues --    5.37420   5.38326   5.38948   5.39697   5.40321
 Alpha virt. eigenvalues --    5.40495   5.40606   5.40674   5.40851   5.41595
 Alpha virt. eigenvalues --    5.42129   5.43143   5.43206   5.43992   5.44611
 Alpha virt. eigenvalues --    5.45024   5.45605   5.46268   5.48368   5.48699
 Alpha virt. eigenvalues --    5.49555   5.50069   5.51461   5.52648   5.53777
 Alpha virt. eigenvalues --    5.54343   5.54654   5.55250   5.55659   5.56412
 Alpha virt. eigenvalues --    5.57229   5.58085   5.58338   5.58816   5.59015
 Alpha virt. eigenvalues --    5.59176   5.59385   5.59551   5.59864   5.60241
 Alpha virt. eigenvalues --    5.60456   5.60747   5.61635   5.62712   5.63525
 Alpha virt. eigenvalues --    5.64703   5.65192   5.65812   5.66601   5.67537
 Alpha virt. eigenvalues --    5.69795   5.70487   5.71186   5.73026   5.74963
 Alpha virt. eigenvalues --    5.77046   5.77290   5.77783   5.78882   5.81034
 Alpha virt. eigenvalues --    5.81766   5.84470   5.85706   5.89297   5.91329
 Alpha virt. eigenvalues --    5.92474   5.93244   5.96106   6.00689   6.01842
 Alpha virt. eigenvalues --    6.03265   6.03446   6.05056   6.05669   6.05862
 Alpha virt. eigenvalues --    6.15809   6.17907   6.18720   6.26291   6.28353
 Alpha virt. eigenvalues --    6.39794   6.40297   6.60886   6.65632   6.69536
 Alpha virt. eigenvalues --    6.72015   6.74032   6.81332   6.84619   6.94035
 Alpha virt. eigenvalues --    6.94328   6.94650   6.97427   6.98683   6.99216
 Alpha virt. eigenvalues --    6.99777   7.05395   7.11713   7.17717   7.22565
 Alpha virt. eigenvalues --    7.24218   7.24555   7.26731   7.33798   7.33982
 Alpha virt. eigenvalues --    7.34851   7.46640   8.44348   8.46096   8.56479
 Alpha virt. eigenvalues --    8.58717   8.81381   8.86994   8.90308   8.91252
 Alpha virt. eigenvalues --    8.91920   9.00100  15.87563  22.90017  22.93005
 Alpha virt. eigenvalues --   22.96463  23.02437  23.12024  23.15053  23.18786
 Alpha virt. eigenvalues --   23.21925  23.26727  23.27462  23.30119  23.30802
 Alpha virt. eigenvalues --   23.32670  23.34888  23.36979  23.38999  23.41348
 Alpha virt. eigenvalues --   23.45584  23.49031  23.54553  23.58671  23.66583
 Alpha virt. eigenvalues --   23.69816  23.72996  23.77717  23.78545  23.85736
 Alpha virt. eigenvalues --   23.88521  24.10732  24.19331  31.89113  32.40056
 Alpha virt. eigenvalues --   33.13978  33.19713  33.29561  33.30866  44.64016
 Alpha virt. eigenvalues --   57.30570  57.53789
          Condensed to atoms (all electrons):
 Mulliken charges:
               1
     1  C   -0.290926
     2  N   -0.193042
     3  C   -0.291481
     4  C    0.172179
     5  C   -0.183282
     6  C   -0.176734
     7  C   -0.036365
     8  C   -0.051015
     9  C   -0.138103
    10  C    0.018864
    11  C   -0.097116
    12  C   -0.018322
    13  C   -0.436978
    14  C    0.098536
    15  N   -0.095808
    16  B    0.369388
    17  F   -0.365927
    18  F   -0.350178
    19  N   -0.109029
    20  C    0.052892
    21  C   -0.412800
    22  C   -0.128893
    23  C    0.013956
    24  C   -0.434266
    25  C    0.094832
    26  C    0.108075
    27  C   -0.240906
    28  C   -0.199791
    29  C   -0.113228
    30  C    0.220044
    31  O   -0.305760
    32  C   -0.099382
    33  C   -0.151180
    34  N   -0.368548
    35  N    0.415624
    36  N   -0.231819
    37  C   -0.135416
    38  C   -0.182801
    39  C   -0.150638
    40  C   -0.193200
    41  H    0.135010
    42  H    0.158378
    43  H    0.131255
    44  H    0.131234
    45  H    0.157446
    46  H    0.135256
    47  H    0.152776
    48  H    0.146081
    49  H    0.109947
    50  H    0.130070
    51  H    0.164626
    52  H    0.157345
    53  H    0.130844
    54  H    0.162991
    55  H    0.134633
    56  H    0.156030
    57  H    0.152096
    58  H    0.160135
    59  H    0.129729
    60  H    0.158298
    61  H    0.156604
    62  H    0.166986
    63  H    0.160597
    64  H    0.153425
    65  H    0.152546
    66  H    0.146654
    67  H    0.163747
    68  H    0.160181
    69  H    0.169591
    70  H    0.137997
    71  H    0.156033
 Sum of Mulliken charges =  -0.00000
 Mulliken charges with hydrogens summed into heavy atoms:
               1
     1  C    0.133717
     2  N   -0.193042
     3  C    0.132455
     4  C    0.172179
     5  C   -0.030506
     6  C   -0.030653
     7  C   -0.036365
     8  C    0.058932
     9  C   -0.008033
    10  C    0.018864
    11  C    0.067510
    12  C   -0.018322
    13  C    0.014203
    14  C    0.098536
    15  N   -0.095808
    16  B    0.369388
    17  F   -0.365927
    18  F   -0.350178
    19  N   -0.109029
    20  C    0.052892
    21  C    0.029959
    22  C    0.031242
    23  C    0.013956
    24  C    0.010365
    25  C    0.094832
    26  C    0.108075
    27  C   -0.240906
    28  C   -0.032805
    29  C    0.047369
    30  C    0.220044
    31  O   -0.305760
    32  C    0.206589
    33  C    0.159221
    34  N   -0.368548
    35  N    0.415624
    36  N   -0.231819
    37  C    0.024765
    38  C   -0.013210
    39  C   -0.012641
    40  C   -0.037167
 Electronic spatial extent (au):  <R**2>=          38698.3585
 Charge=              0.0000 electrons
 Dipole moment (field-independent basis, Debye):
    X=              1.7892    Y=             -5.8942    Z=             -2.1819  Tot=              6.5348
 Quadrupole moment (field-independent basis, Debye-Ang):
   XX=           -141.9943   YY=           -204.9289   ZZ=           -240.6256
   XY=             -2.7447   XZ=             35.7359   YZ=              8.4618
 Traceless Quadrupole moment (field-independent basis, Debye-Ang):
   XX=             53.8553   YY=             -9.0793   ZZ=            -44.7760
   XY=             -2.7447   XZ=             35.7359   YZ=              8.4618
 Octapole moment (field-independent basis, Debye-Ang**2):
  XXX=           1223.1879  YYY=             23.0729  ZZZ=            -19.5414  XYY=            -19.2661
  XXY=           -242.6255  XXZ=           -164.1704  XZZ=            -58.6827  YZZ=            -10.5151
  YYZ=            -12.7385  XYZ=            -45.3841
 Hexadecapole moment (field-independent basis, Debye-Ang**3):
 XXXX=         -35100.6292 YYYY=          -5634.4229 ZZZZ=           -986.4967 XXXY=           -136.4710
 XXXZ=           2592.1076 YYYX=             37.7683 YYYZ=             46.6721 ZZZX=            204.5176
 ZZZY=             30.0696 XXYY=          -7372.2472 XXZZ=          -7975.6467 YYZZ=          -1292.8654
 XXYZ=            449.7166 YYXZ=             78.1047 ZZXY=            124.1535
 N-N= 4.156613065506D+03 E-N=-1.248708544555D+04  KE= 1.780493724809D+03
 No NMR shielding tensors so no spin-rotation constants.
 Leave Link  601 at Sat Nov  8 10:15:38 2025, MaxMem= 30870077440 cpu:              98.6 elap:               1.8
 (Enter /public/software/gauss/g16/l9999.exe)
 1\1\GINC-CU303\SP\RM062X\def2TZVPP\C30H31B1F2N6O1\BAIDING\08-Nov-2025\
 0\\#p M062X/DEF2TZVPP scrf=(solvent=water) em=GD3\\Energy calculation 
 for M100532471\\0,1\C,0,10.411647,0.152767,0.4618\N,0,9.752073,-1.0792
 33,0.034046\C,0,10.518698,-2.315239,0.174151\C,0,8.373842,-1.141945,0.
 038736\C,0,7.578858,0.030495,0.164221\C,0,6.197565,-0.030279,0.126079\
 C,0,5.508403,-1.254866,-0.028355\C,0,4.066362,-1.377061,-0.072221\C,0,
 3.150143,-0.374714,0.026844\C,0,1.731299,-0.596627,-0.019726\C,0,1.022
 01,-1.829032,-0.044376\C,0,-0.333301,-1.562034,-0.069375\C,0,-1.400629
 ,-2.613646,-0.093191\C,0,-0.466454,-0.127183,-0.059348\N,0,0.822885,0.
 42,-0.029543\B,0,1.146478,1.929259,-0.167016\F,0,2.024625,2.335006,0.8
 53414\F,0,1.751022,2.187953,-1.409637\N,0,-0.191884,2.691308,-0.05148\
 C,0,-0.337517,4.039157,-0.015797\C,0,0.816805,4.984783,-0.025811\C,0,-
 1.706444,4.346101,0.02825\C,0,-2.432238,3.153091,0.013159\C,0,-3.92878
 9,3.072258,0.056645\C,0,-1.464236,2.102733,-0.040348\C,0,-1.598027,0.6
 98524,-0.060728\C,0,-2.962546,0.090158,-0.075714\C,0,-3.635349,-0.1242
 24,-1.282525\C,0,-4.908671,-0.699561,-1.3116\C,0,-5.524892,-1.06425,-0
 .109309\O,0,-6.763228,-1.644574,-0.019358\C,0,-7.516171,-1.848172,-1.2
 21166\C,0,-8.845353,-2.458383,-0.826009\N,0,-9.697004,-1.526275,-0.044
 559\N,0,-9.438651,-1.437985,1.157868\N,0,-9.320364,-1.272221,2.282676\
 C,0,-4.864461,-0.84767,1.10877\C,0,-3.596527,-0.278196,1.12146\C,0,6.3
 02116,-2.416957,-0.137859\C,0,7.686146,-2.374895,-0.100325\H,0,10.1188
 26,0.995421,-0.170197\H,0,10.187269,0.411344,1.506225\H,0,11.489723,0.
 026526,0.362426\H,0,11.581064,-2.078915,0.116438\H,0,10.327565,-2.8247
 3,1.12921\H,0,10.290965,-3.012289,-0.636917\H,0,8.050833,0.996312,0.29
 2447\H,0,5.639593,0.896145,0.223045\H,0,3.703111,-2.395133,-0.202931\H
 ,0,3.476726,0.650238,0.160218\H,0,1.472205,-2.811952,-0.028442\H,0,-2.
 066599,-2.501561,-0.953843\H,0,-0.938732,-3.603138,-0.144965\H,0,-2.02
 9851,-2.578982,0.801395\H,0,0.457368,6.015169,-0.054212\H,0,1.442602,4
 .854838,0.862979\H,0,1.457789,4.81253,-0.896911\H,0,-2.119082,5.34561,
 0.069096\H,0,-4.348242,4.079536,0.127669\H,0,-4.342493,2.596424,-0.838
 04\H,0,-4.285948,2.495333,0.915321\H,0,-3.16181,0.155057,-2.218862\H,0
 ,-5.399013,-0.85825,-2.26421\H,0,-7.665534,-0.895213,-1.741102\H,0,-6.
 991065,-2.539424,-1.891717\H,0,-9.406507,-2.686935,-1.731902\H,0,-8.68
 747,-3.388012,-0.271995\H,0,-5.35848,-1.132092,2.032254\H,0,-3.092457,
 -0.117219,2.06947\H,0,5.809606,-3.379874,-0.248321\H,0,8.23753,-3.3030
 48,-0.178736\\Version=ES64L-G16RevA.03\State=1-A\HF=-1790.2385056\RMSD
 =8.520e-09\Dipole=0.7039328,-2.3189527,-0.8584288\Quadrupole=40.040106
 1,-6.7502381,-33.289868,-2.0406234,26.5687703,6.291149\PG=C01 [X(C30H3
 1B1F2N6O1)]\\@


 If your ship doesn't come in, swim out to it!
                          -- Jonathan Winters
 Job cpu time:       0 days 13 hours 32 minutes 49.2 seconds.
 Elapsed time:       0 days  0 hours 12 minutes 56.9 seconds.
 File lengths (MBytes):  RWF=   1877 Int=      0 D2E=      0 Chk=    164 Scr=      1
 Normal termination of Gaussian 16 at Sat Nov  8 10:15:38 2025.
