 Entering Gaussian System, Link 0=g16
 Input=M100035858_sp.gjf
 Output=M100035858_sp.log
 Initial command:
 /public/software/gauss/g16/l1.exe "/public/home/baiding/1101_v2_sp/tmp_M100035858_sp_1568608/Gau-32090.inp" -scrdir="/public/home/baiding/1101_v2_sp/tmp_M100035858_sp_1568608/"
 Entering Link 1 = /public/software/gauss/g16/l1.exe PID=     32091.
  
 Copyright (c) 1988,1990,1992,1993,1995,1998,2003,2009,2016,
            Gaussian, Inc.  All Rights Reserved.
  
 This is part of the Gaussian(R) 16 program.  It is based on
 the Gaussian(R) 09 system (copyright 2009, Gaussian, Inc.),
 the Gaussian(R) 03 system (copyright 2003, Gaussian, Inc.),
 the Gaussian(R) 98 system (copyright 1998, Gaussian, Inc.),
 the Gaussian(R) 94 system (copyright 1995, Gaussian, Inc.),
 the Gaussian 92(TM) system (copyright 1992, Gaussian, Inc.),
 the Gaussian 90(TM) system (copyright 1990, Gaussian, Inc.),
 the Gaussian 88(TM) system (copyright 1988, Gaussian, Inc.),
 the Gaussian 86(TM) system (copyright 1986, Carnegie Mellon
 University), and the Gaussian 82(TM) system (copyright 1983,
 Carnegie Mellon University). Gaussian is a federally registered
 trademark of Gaussian, Inc.
  
 This software contains proprietary and confidential information,
 including trade secrets, belonging to Gaussian, Inc.
  
 This software is provided under written license and may be
 used, copied, transmitted, or stored only in accord with that
 written license.
  
 The following legend is applicable only to US Government
 contracts under FAR:
  
                    RESTRICTED RIGHTS LEGEND
  
 Use, reproduction and disclosure by the US Government is
 subject to restrictions as set forth in subparagraphs (a)
 and (c) of the Commercial Computer Software - Restricted
 Rights clause in FAR 52.227-19.
  
 Gaussian, Inc.
 340 Quinnipiac St., Bldg. 40, Wallingford CT 06492
  
  
 ---------------------------------------------------------------
 Warning -- This program may not be used in any manner that
 competes with the business of Gaussian, Inc. or will provide
 assistance to any competitor of Gaussian, Inc.  The licensee
 of this program is prohibited from giving any competitor of
 Gaussian, Inc. access to this program.  By using this program,
 the user acknowledges that Gaussian, Inc. is engaged in the
 business of creating and licensing software in the field of
 computational chemistry and represents and warrants to the
 licensee that it is not a competitor of Gaussian, Inc. and that
 it will not use this program in any manner prohibited above.
 ---------------------------------------------------------------
  

 Cite this work as:
 Gaussian 16, Revision A.03,
 M. J. Frisch, G. W. Trucks, H. B. Schlegel, G. E. Scuseria, 
 M. A. Robb, J. R. Cheeseman, G. Scalmani, V. Barone, 
 G. A. Petersson, H. Nakatsuji, X. Li, M. Caricato, A. V. Marenich, 
 J. Bloino, B. G. Janesko, R. Gomperts, B. Mennucci, H. P. Hratchian, 
 J. V. Ortiz, A. F. Izmaylov, J. L. Sonnenberg, D. Williams-Young, 
 F. Ding, F. Lipparini, F. Egidi, J. Goings, B. Peng, A. Petrone, 
 T. Henderson, D. Ranasinghe, V. G. Zakrzewski, J. Gao, N. Rega, 
 G. Zheng, W. Liang, M. Hada, M. Ehara, K. Toyota, R. Fukuda, 
 J. Hasegawa, M. Ishida, T. Nakajima, Y. Honda, O. Kitao, H. Nakai, 
 T. Vreven, K. Throssell, J. A. Montgomery, Jr., J. E. Peralta, 
 F. Ogliaro, M. J. Bearpark, J. J. Heyd, E. N. Brothers, K. N. Kudin, 
 V. N. Staroverov, T. A. Keith, R. Kobayashi, J. Normand, 
 K. Raghavachari, A. P. Rendell, J. C. Burant, S. S. Iyengar, 
 J. Tomasi, M. Cossi, J. M. Millam, M. Klene, C. Adamo, R. Cammi, 
 J. W. Ochterski, R. L. Martin, K. Morokuma, O. Farkas, 
 J. B. Foresman, and D. J. Fox, Gaussian, Inc., Wallingford CT, 2016.
 
 ******************************************
 Gaussian 16:  ES64L-G16RevA.03 25-Dec-2016
                 7-Nov-2025 
 ******************************************
 %nprocshared=64
 Will use up to   64 processors via shared memory.
 %mem=230GB
 %chk=M100035858_sp.chk
 ----------------------------------------------
 #p M062X/DEF2TZVPP scrf=(solvent=water) em=GD3
 ----------------------------------------------
 1/38=1,172=1/1;
 2/12=2,17=6,18=5,40=1/2;
 3/5=44,7=202,11=2,25=1,30=1,70=2201,72=1,74=-55,124=31/1,2,3;
 4//1;
 5/5=2,38=5,53=1/2;
 6/7=2,8=2,9=2,10=2,28=1/1;
 99/5=1,9=1/99;
 Leave Link    1 at Fri Nov  7 12:32:55 2025, MaxMem= 30870077440 cpu:              16.2 elap:               0.3
 (Enter /public/software/gauss/g16/l101.exe)
 ---------------------------------
 Energy calculation for M100035858
 ---------------------------------
 Symbolic Z-matrix:
 Charge =  0 Multiplicity = 1
 C                    -3.74876   9.41291  -1.36978 
 O                    -5.12613   9.08911  -1.14732 
 C                    -5.46317   7.77601  -0.97789 
 C                    -6.8271    7.5148   -0.77275 
 C                    -7.26287   6.21116  -0.59566 
 C                    -6.36408   5.12135  -0.61564 
 C                    -6.88864   3.77658  -0.42883 
 C                    -6.17887   2.61901  -0.41067 
 C                    -6.7827    1.32371  -0.23496 
 C                    -8.15951   0.9828   -0.20194 
 C                    -8.27612  -0.38422  -0.02274 
 C                    -9.58056  -1.11864   0.05048 
 C                    -6.93422  -0.89675   0.05505 
 N                    -6.05336   0.1798   -0.08375 
 B                    -4.52008   0.08949   0.12222 
 F                    -4.15921   0.65221   1.3555 
 F                    -3.85307   0.77965  -0.90601 
 N                    -4.14534  -1.41371   0.08575 
 C                    -2.88261  -1.93313   0.11258 
 C                    -1.70041  -1.11988  -0.01305 
 C                    -0.44159  -1.59909   0.15681 
 C                     0.79715  -0.84546   0.02648 
 C                     2.01311  -1.49303   0.31202 
 C                     3.26697  -0.87841   0.22575 
 N                     4.44938  -1.62012   0.58813 
 C                     5.18148  -1.03995   1.73281 
 C                     6.66625  -1.39904   1.81818 
 O                     7.2899   -1.15477   2.86519 
 N                     7.23345  -1.96458   0.7392 
 C                     8.64902  -2.30314   0.65671 
 C                     8.89323  -3.18864  -0.55878 
 O                     10.28445  -3.50253  -0.57411 
 C                     4.26061  -3.06096   0.8048 
 C                     3.98644  -3.91249  -0.43033 
 O                     3.46125  -5.02909  -0.28891 
 N                     4.38492  -3.41583  -1.61752 
 C                     4.44311  -4.2208   -2.83015 
 C                     5.81806  -4.84835  -3.05725 
 O                     6.27022  -5.62803  -1.95018 
 C                     3.3245    0.47804  -0.24311 
 C                     2.09462   1.12882  -0.47608 
 C                     0.86489   0.5037   -0.34903 
 N                     4.53835   1.19258  -0.43615 
 C                     5.57784   0.60298  -1.27939 
 C                     7.02385   0.81589  -0.82112 
 O                     7.91881   0.33263  -1.55171 
 N                     7.23423   1.50727   0.30487 
 C                     8.50912   1.71711   1.01084 
 C                     9.7186    2.07697   0.15129 
 O                     10.30356   0.96495  -0.51841 
 C                     4.46715   2.64957  -0.54569 
 C                     4.32669   3.30436   0.82857 
 O                     4.9798    2.87556   1.79893 
 N                     3.51641   4.37271   0.90033 
 C                     3.39347   5.20797   2.09356 
 C                     4.40036   6.3552    2.128 
 O                     4.19875   7.30282   1.0781 
 C                    -2.98195  -3.33977   0.26025 
 C                    -4.32028  -3.68712   0.33069 
 C                    -4.82203  -5.09221   0.47445 
 C                    -5.06126  -2.45989   0.22255 
 C                    -6.44342  -2.20291   0.21337 
 C                    -7.40422  -3.33875   0.36047 
 C                    -7.83785  -3.73633   1.63326 
 C                    -8.73067  -4.79336   1.77705 
 C                    -9.19833  -5.46478   0.63496 
 C                    -8.76941  -5.07334  -0.64437 
 C                    -7.87663  -4.01465  -0.7737 
 C                    -10.11639  -6.5534    0.7752 
 N                    -10.86442  -7.44066   0.88908 
 C                    -4.9997    5.40944  -0.81997 
 C                    -4.54698   6.71234  -0.99902 
 H                    -3.37251   8.93985  -2.2829 
 H                    -3.71425   10.49705  -1.48178 
 H                    -3.12828   9.11435  -0.51824 
 H                    -7.5244    8.34627  -0.75752 
 H                    -8.32084   6.01987  -0.43843 
 H                    -7.96697   3.72679  -0.28909 
 H                    -5.10317   2.63644  -0.54217 
 H                    -8.98002   1.67708  -0.31869 
 H                    -9.68739  -1.84772  -0.75857 
 H                    -9.69111  -1.66649   0.99112 
 H                    -10.40571  -0.4058   -0.02574 
 H                    -1.85697  -0.07712  -0.26391 
 H                    -0.31366  -2.64681   0.42201 
 H                     1.94537  -2.5234    0.63527 
 H                     5.11685   0.04857   1.68923 
 H                     4.73191  -1.34507   2.68843 
 H                     6.67153  -2.03764  -0.09965 
 H                     9.26287  -1.39901   0.57225 
 H                     8.94572  -2.82774   1.56973 
 H                     8.27754  -4.09657  -0.49695 
 H                     8.59976  -2.64563  -1.4695 
 H                     10.44485  -4.05272  -1.35356 
 H                     5.19584  -3.45475   1.2118 
 H                     3.49223  -3.29196   1.55262 
 H                     4.87625  -2.53126  -1.60324 
 H                     3.68239  -5.00009  -2.74559 
 H                     4.18952  -3.59501  -3.691 
 H                     5.77794  -5.44564  -3.97932 
 H                     6.57045  -4.06542  -3.19795 
 H                     5.58706  -6.28685  -1.75608 
 H                     2.08983   2.16064  -0.7971 
 H                    -0.03423   1.0686   -0.57112 
 H                     5.43436  -0.47439  -1.33419 
 H                     5.52069   0.9813   -2.30986 
 H                     6.40813   1.80626   0.82622 
 H                     8.32151   2.54075   1.7049 
 H                     8.74623   0.83199   1.61206 
 H                     9.44779   2.87577  -0.55521 
 H                     10.48338   2.47929   0.82338 
 H                     9.56295   0.59004  -1.04647 
 H                     5.42344   3.00249  -0.94082 
 H                     3.71113   3.00742  -1.25247 
 H                     3.04202   4.66967   0.05701 
 H                     2.37676   5.60788   2.1188 
 H                     3.53522   4.57371   2.97161 
 H                     4.27303   6.90049   3.06838 
 H                     5.42191   5.95332   2.10388 
 H                     4.46075   6.87652   0.2493 
 H                    -2.14851  -4.02791   0.29076 
 H                    -5.4418   -5.3959   -0.37475 
 H                    -3.97349  -5.77847   0.53635 
 H                    -5.4292   -5.22127   1.37551 
 H                    -7.47438  -3.21592   2.51302 
 H                    -9.06607  -5.10071   2.76143 
 H                    -9.1345   -5.59606  -1.52152 
 H                    -7.54336  -3.70981  -1.76008 
 H                    -4.27266   4.60387  -0.8418 
 H                    -3.49019   6.89173  -1.15443 
 
 ITRead=  0  0  0  0  0  0  0  0  0  0  0  0  0  0  0  0  0  0  0  0
 ITRead=  0  0  0  0  0  0  0  0  0  0  0  0  0  0  0  0  0  0  0  0
 ITRead=  0  0  0  0  0  0  0  0  0  0  0  0  0  0  0  0  0  0  0  0
 ITRead=  0  0  0  0  0  0  0  0  0  0  0  0  0  0  0  0  0  0  0  0
 ITRead=  0  0  0  0  0  0  0  0  0  0  0  0  0  0  0  0  0  0  0  0
 ITRead=  0  0  0  0  0  0  0  0  0  0  0  0  0  0  0  0  0  0  0  0
 ITRead=  0  0  0  0  0  0  0  0  0  0
 MicOpt= -1 -1 -1 -1 -1 -1 -1 -1 -1 -1 -1 -1 -1 -1 -1 -1 -1 -1 -1 -1
 MicOpt= -1 -1 -1 -1 -1 -1 -1 -1 -1 -1 -1 -1 -1 -1 -1 -1 -1 -1 -1 -1
 MicOpt= -1 -1 -1 -1 -1 -1 -1 -1 -1 -1 -1 -1 -1 -1 -1 -1 -1 -1 -1 -1
 MicOpt= -1 -1 -1 -1 -1 -1 -1 -1 -1 -1 -1 -1 -1 -1 -1 -1 -1 -1 -1 -1
 MicOpt= -1 -1 -1 -1 -1 -1 -1 -1 -1 -1 -1 -1 -1 -1 -1 -1 -1 -1 -1 -1
 MicOpt= -1 -1 -1 -1 -1 -1 -1 -1 -1 -1 -1 -1 -1 -1 -1 -1 -1 -1 -1 -1
 MicOpt= -1 -1 -1 -1 -1 -1 -1 -1 -1 -1
 NAtoms=    130 NQM=      130 NQMF=       0 NMMI=      0 NMMIF=      0
                NMic=       0 NMicF=      0.
                    Isotopes and Nuclear Properties:
 (Nuclear quadrupole moments (NQMom) in fm**2, nuclear magnetic moments (NMagM)
  in nuclear magnetons)

  Atom         1           2           3           4           5           6           7           8           9          10
 IAtWgt=          12          16          12          12          12          12          12          12          12          12
 AtmWgt=  12.0000000  15.9949146  12.0000000  12.0000000  12.0000000  12.0000000  12.0000000  12.0000000  12.0000000  12.0000000
 NucSpn=           0           0           0           0           0           0           0           0           0           0
 AtZEff=  -0.0000000  -0.0000000  -0.0000000  -0.0000000  -0.0000000  -0.0000000  -0.0000000  -0.0000000  -0.0000000  -0.0000000
 NQMom=    0.0000000   0.0000000   0.0000000   0.0000000   0.0000000   0.0000000   0.0000000   0.0000000   0.0000000   0.0000000
 NMagM=    0.0000000   0.0000000   0.0000000   0.0000000   0.0000000   0.0000000   0.0000000   0.0000000   0.0000000   0.0000000
 AtZNuc=   6.0000000   8.0000000   6.0000000   6.0000000   6.0000000   6.0000000   6.0000000   6.0000000   6.0000000   6.0000000

  Atom        11          12          13          14          15          16          17          18          19          20
 IAtWgt=          12          12          12          14          11          19          19          14          12          12
 AtmWgt=  12.0000000  12.0000000  12.0000000  14.0030740  11.0093053  18.9984033  18.9984033  14.0030740  12.0000000  12.0000000
 NucSpn=           0           0           0           2           3           1           1           2           0           0
 AtZEff=  -0.0000000  -0.0000000  -0.0000000  -0.0000000  -0.0000000  -0.0000000  -0.0000000  -0.0000000  -0.0000000  -0.0000000
 NQMom=    0.0000000   0.0000000   0.0000000   2.0440000   4.0590000   0.0000000   0.0000000   2.0440000   0.0000000   0.0000000
 NMagM=    0.0000000   0.0000000   0.0000000   0.4037610   2.6886370   2.6288670   2.6288670   0.4037610   0.0000000   0.0000000
 AtZNuc=   6.0000000   6.0000000   6.0000000   7.0000000   5.0000000   9.0000000   9.0000000   7.0000000   6.0000000   6.0000000

  Atom        21          22          23          24          25          26          27          28          29          30
 IAtWgt=          12          12          12          12          14          12          12          16          14          12
 AtmWgt=  12.0000000  12.0000000  12.0000000  12.0000000  14.0030740  12.0000000  12.0000000  15.9949146  14.0030740  12.0000000
 NucSpn=           0           0           0           0           2           0           0           0           2           0
 AtZEff=  -0.0000000  -0.0000000  -0.0000000  -0.0000000  -0.0000000  -0.0000000  -0.0000000  -0.0000000  -0.0000000  -0.0000000
 NQMom=    0.0000000   0.0000000   0.0000000   0.0000000   2.0440000   0.0000000   0.0000000   0.0000000   2.0440000   0.0000000
 NMagM=    0.0000000   0.0000000   0.0000000   0.0000000   0.4037610   0.0000000   0.0000000   0.0000000   0.4037610   0.0000000
 AtZNuc=   6.0000000   6.0000000   6.0000000   6.0000000   7.0000000   6.0000000   6.0000000   8.0000000   7.0000000   6.0000000

  Atom        31          32          33          34          35          36          37          38          39          40
 IAtWgt=          12          16          12          12          16          14          12          12          16          12
 AtmWgt=  12.0000000  15.9949146  12.0000000  12.0000000  15.9949146  14.0030740  12.0000000  12.0000000  15.9949146  12.0000000
 NucSpn=           0           0           0           0           0           2           0           0           0           0
 AtZEff=  -0.0000000  -0.0000000  -0.0000000  -0.0000000  -0.0000000  -0.0000000  -0.0000000  -0.0000000  -0.0000000  -0.0000000
 NQMom=    0.0000000   0.0000000   0.0000000   0.0000000   0.0000000   2.0440000   0.0000000   0.0000000   0.0000000   0.0000000
 NMagM=    0.0000000   0.0000000   0.0000000   0.0000000   0.0000000   0.4037610   0.0000000   0.0000000   0.0000000   0.0000000
 AtZNuc=   6.0000000   8.0000000   6.0000000   6.0000000   8.0000000   7.0000000   6.0000000   6.0000000   8.0000000   6.0000000

  Atom        41          42          43          44          45          46          47          48          49          50
 IAtWgt=          12          12          14          12          12          16          14          12          12          16
 AtmWgt=  12.0000000  12.0000000  14.0030740  12.0000000  12.0000000  15.9949146  14.0030740  12.0000000  12.0000000  15.9949146
 NucSpn=           0           0           2           0           0           0           2           0           0           0
 AtZEff=  -0.0000000  -0.0000000  -0.0000000  -0.0000000  -0.0000000  -0.0000000  -0.0000000  -0.0000000  -0.0000000  -0.0000000
 NQMom=    0.0000000   0.0000000   2.0440000   0.0000000   0.0000000   0.0000000   2.0440000   0.0000000   0.0000000   0.0000000
 NMagM=    0.0000000   0.0000000   0.4037610   0.0000000   0.0000000   0.0000000   0.4037610   0.0000000   0.0000000   0.0000000
 AtZNuc=   6.0000000   6.0000000   7.0000000   6.0000000   6.0000000   8.0000000   7.0000000   6.0000000   6.0000000   8.0000000

  Atom        51          52          53          54          55          56          57          58          59          60
 IAtWgt=          12          12          16          14          12          12          16          12          12          12
 AtmWgt=  12.0000000  12.0000000  15.9949146  14.0030740  12.0000000  12.0000000  15.9949146  12.0000000  12.0000000  12.0000000
 NucSpn=           0           0           0           2           0           0           0           0           0           0
 AtZEff=  -0.0000000  -0.0000000  -0.0000000  -0.0000000  -0.0000000  -0.0000000  -0.0000000  -0.0000000  -0.0000000  -0.0000000
 NQMom=    0.0000000   0.0000000   0.0000000   2.0440000   0.0000000   0.0000000   0.0000000   0.0000000   0.0000000   0.0000000
 NMagM=    0.0000000   0.0000000   0.0000000   0.4037610   0.0000000   0.0000000   0.0000000   0.0000000   0.0000000   0.0000000
 AtZNuc=   6.0000000   6.0000000   8.0000000   7.0000000   6.0000000   6.0000000   8.0000000   6.0000000   6.0000000   6.0000000

  Atom        61          62          63          64          65          66          67          68          69          70
 IAtWgt=          12          12          12          12          12          12          12          12          12          14
 AtmWgt=  12.0000000  12.0000000  12.0000000  12.0000000  12.0000000  12.0000000  12.0000000  12.0000000  12.0000000  14.0030740
 NucSpn=           0           0           0           0           0           0           0           0           0           2
 AtZEff=  -0.0000000  -0.0000000  -0.0000000  -0.0000000  -0.0000000  -0.0000000  -0.0000000  -0.0000000  -0.0000000  -0.0000000
 NQMom=    0.0000000   0.0000000   0.0000000   0.0000000   0.0000000   0.0000000   0.0000000   0.0000000   0.0000000   2.0440000
 NMagM=    0.0000000   0.0000000   0.0000000   0.0000000   0.0000000   0.0000000   0.0000000   0.0000000   0.0000000   0.4037610
 AtZNuc=   6.0000000   6.0000000   6.0000000   6.0000000   6.0000000   6.0000000   6.0000000   6.0000000   6.0000000   7.0000000

  Atom        71          72          73          74          75          76          77          78          79          80
 IAtWgt=          12          12           1           1           1           1           1           1           1           1
 AtmWgt=  12.0000000  12.0000000   1.0078250   1.0078250   1.0078250   1.0078250   1.0078250   1.0078250   1.0078250   1.0078250
 NucSpn=           0           0           1           1           1           1           1           1           1           1
 AtZEff=  -0.0000000  -0.0000000  -0.0000000  -0.0000000  -0.0000000  -0.0000000  -0.0000000  -0.0000000  -0.0000000  -0.0000000
 NQMom=    0.0000000   0.0000000   0.0000000   0.0000000   0.0000000   0.0000000   0.0000000   0.0000000   0.0000000   0.0000000
 NMagM=    0.0000000   0.0000000   2.7928460   2.7928460   2.7928460   2.7928460   2.7928460   2.7928460   2.7928460   2.7928460
 AtZNuc=   6.0000000   6.0000000   1.0000000   1.0000000   1.0000000   1.0000000   1.0000000   1.0000000   1.0000000   1.0000000

  Atom        81          82          83          84          85          86          87          88          89          90
 IAtWgt=           1           1           1           1           1           1           1           1           1           1
 AtmWgt=   1.0078250   1.0078250   1.0078250   1.0078250   1.0078250   1.0078250   1.0078250   1.0078250   1.0078250   1.0078250
 NucSpn=           1           1           1           1           1           1           1           1           1           1
 AtZEff=  -0.0000000  -0.0000000  -0.0000000  -0.0000000  -0.0000000  -0.0000000  -0.0000000  -0.0000000  -0.0000000  -0.0000000
 NQMom=    0.0000000   0.0000000   0.0000000   0.0000000   0.0000000   0.0000000   0.0000000   0.0000000   0.0000000   0.0000000
 NMagM=    2.7928460   2.7928460   2.7928460   2.7928460   2.7928460   2.7928460   2.7928460   2.7928460   2.7928460   2.7928460
 AtZNuc=   1.0000000   1.0000000   1.0000000   1.0000000   1.0000000   1.0000000   1.0000000   1.0000000   1.0000000   1.0000000

  Atom        91          92          93          94          95          96          97          98          99         100
 IAtWgt=           1           1           1           1           1           1           1           1           1           1
 AtmWgt=   1.0078250   1.0078250   1.0078250   1.0078250   1.0078250   1.0078250   1.0078250   1.0078250   1.0078250   1.0078250
 NucSpn=           1           1           1           1           1           1           1           1           1           1
 AtZEff=  -0.0000000  -0.0000000  -0.0000000  -0.0000000  -0.0000000  -0.0000000  -0.0000000  -0.0000000  -0.0000000  -0.0000000
 NQMom=    0.0000000   0.0000000   0.0000000   0.0000000   0.0000000   0.0000000   0.0000000   0.0000000   0.0000000   0.0000000
 NMagM=    2.7928460   2.7928460   2.7928460   2.7928460   2.7928460   2.7928460   2.7928460   2.7928460   2.7928460   2.7928460
 AtZNuc=   1.0000000   1.0000000   1.0000000   1.0000000   1.0000000   1.0000000   1.0000000   1.0000000   1.0000000   1.0000000

  Atom       101         102         103         104         105         106         107         108         109         110
 IAtWgt=           1           1           1           1           1           1           1           1           1           1
 AtmWgt=   1.0078250   1.0078250   1.0078250   1.0078250   1.0078250   1.0078250   1.0078250   1.0078250   1.0078250   1.0078250
 NucSpn=           1           1           1           1           1           1           1           1           1           1
 AtZEff=  -0.0000000  -0.0000000  -0.0000000  -0.0000000  -0.0000000  -0.0000000  -0.0000000  -0.0000000  -0.0000000  -0.0000000
 NQMom=    0.0000000   0.0000000   0.0000000   0.0000000   0.0000000   0.0000000   0.0000000   0.0000000   0.0000000   0.0000000
 NMagM=    2.7928460   2.7928460   2.7928460   2.7928460   2.7928460   2.7928460   2.7928460   2.7928460   2.7928460   2.7928460
 AtZNuc=   1.0000000   1.0000000   1.0000000   1.0000000   1.0000000   1.0000000   1.0000000   1.0000000   1.0000000   1.0000000

  Atom       111         112         113         114         115         116         117         118         119         120
 IAtWgt=           1           1           1           1           1           1           1           1           1           1
 AtmWgt=   1.0078250   1.0078250   1.0078250   1.0078250   1.0078250   1.0078250   1.0078250   1.0078250   1.0078250   1.0078250
 NucSpn=           1           1           1           1           1           1           1           1           1           1
 AtZEff=  -0.0000000  -0.0000000  -0.0000000  -0.0000000  -0.0000000  -0.0000000  -0.0000000  -0.0000000  -0.0000000  -0.0000000
 NQMom=    0.0000000   0.0000000   0.0000000   0.0000000   0.0000000   0.0000000   0.0000000   0.0000000   0.0000000   0.0000000
 NMagM=    2.7928460   2.7928460   2.7928460   2.7928460   2.7928460   2.7928460   2.7928460   2.7928460   2.7928460   2.7928460
 AtZNuc=   1.0000000   1.0000000   1.0000000   1.0000000   1.0000000   1.0000000   1.0000000   1.0000000   1.0000000   1.0000000

  Atom       121         122         123         124         125         126         127         128         129         130
 IAtWgt=           1           1           1           1           1           1           1           1           1           1
 AtmWgt=   1.0078250   1.0078250   1.0078250   1.0078250   1.0078250   1.0078250   1.0078250   1.0078250   1.0078250   1.0078250
 NucSpn=           1           1           1           1           1           1           1           1           1           1
 AtZEff=  -0.0000000  -0.0000000  -0.0000000  -0.0000000  -0.0000000  -0.0000000  -0.0000000  -0.0000000  -0.0000000  -0.0000000
 NQMom=    0.0000000   0.0000000   0.0000000   0.0000000   0.0000000   0.0000000   0.0000000   0.0000000   0.0000000   0.0000000
 NMagM=    2.7928460   2.7928460   2.7928460   2.7928460   2.7928460   2.7928460   2.7928460   2.7928460   2.7928460   2.7928460
 AtZNuc=   1.0000000   1.0000000   1.0000000   1.0000000   1.0000000   1.0000000   1.0000000   1.0000000   1.0000000   1.0000000
 Leave Link  101 at Fri Nov  7 12:32:55 2025, MaxMem= 30870077440 cpu:               4.6 elap:               0.1
 (Enter /public/software/gauss/g16/l202.exe)
 Stoichiometry    C51H58BF2N9O9
 Framework group  C1[X(C51H58BF2N9O9)]
 Deg. of freedom   384
 Full point group                 C1      NOp   1
 Largest Abelian subgroup         C1      NOp   1
 Largest concise Abelian subgroup C1      NOp   1
                         Standard orientation:                         
 ---------------------------------------------------------------------
 Center     Atomic      Atomic             Coordinates (Angstroms)
 Number     Number       Type             X           Y           Z
 ---------------------------------------------------------------------
      1          6           0        3.748757    9.412909    1.369775
      2          8           0        5.126127    9.089106    1.147322
      3          6           0        5.463170    7.776007    0.977890
      4          6           0        6.827101    7.514799    0.772753
      5          6           0        7.262872    6.211157    0.595661
      6          6           0        6.364078    5.121346    0.615639
      7          6           0        6.888639    3.776575    0.428825
      8          6           0        6.178871    2.619012    0.410667
      9          6           0        6.782701    1.323706    0.234963
     10          6           0        8.159513    0.982795    0.201937
     11          6           0        8.276121   -0.384220    0.022744
     12          6           0        9.580558   -1.118637   -0.050481
     13          6           0        6.934218   -0.896750   -0.055051
     14          7           0        6.053359    0.179796    0.083747
     15          5           0        4.520079    0.089491   -0.122220
     16          9           0        4.159209    0.652208   -1.355495
     17          9           0        3.853067    0.779647    0.906007
     18          7           0        4.145338   -1.413710   -0.085749
     19          6           0        2.882605   -1.933133   -0.112582
     20          6           0        1.700406   -1.119877    0.013047
     21          6           0        0.441593   -1.599088   -0.156814
     22          6           0       -0.797145   -0.845457   -0.026475
     23          6           0       -2.013109   -1.493026   -0.312024
     24          6           0       -3.266969   -0.878408   -0.225746
     25          7           0       -4.449376   -1.620121   -0.588131
     26          6           0       -5.181478   -1.039947   -1.732811
     27          6           0       -6.666246   -1.399037   -1.818177
     28          8           0       -7.289902   -1.154767   -2.865187
     29          7           0       -7.233450   -1.964581   -0.739199
     30          6           0       -8.649023   -2.303135   -0.656706
     31          6           0       -8.893232   -3.188639    0.558781
     32          8           0      -10.284446   -3.502532    0.574111
     33          6           0       -4.260611   -3.060958   -0.804803
     34          6           0       -3.986437   -3.912490    0.430328
     35          8           0       -3.461249   -5.029088    0.288914
     36          7           0       -4.384917   -3.415827    1.617522
     37          6           0       -4.443108   -4.220801    2.830147
     38          6           0       -5.818057   -4.848346    3.057246
     39          8           0       -6.270216   -5.628034    1.950175
     40          6           0       -3.324502    0.478038    0.243109
     41          6           0       -2.094623    1.128818    0.476077
     42          6           0       -0.864887    0.503702    0.349025
     43          7           0       -4.538346    1.192580    0.436146
     44          6           0       -5.577842    0.602982    1.279385
     45          6           0       -7.023853    0.815889    0.821122
     46          8           0       -7.918813    0.332631    1.551709
     47          7           0       -7.234225    1.507266   -0.304873
     48          6           0       -8.509124    1.717113   -1.010839
     49          6           0       -9.718603    2.076971   -0.151290
     50          8           0      -10.303560    0.964954    0.518409
     51          6           0       -4.467147    2.649572    0.545689
     52          6           0       -4.326692    3.304355   -0.828566
     53          8           0       -4.979802    2.875564   -1.798929
     54          7           0       -3.516407    4.372712   -0.900327
     55          6           0       -3.393474    5.207973   -2.093559
     56          6           0       -4.400365    6.355199   -2.128002
     57          8           0       -4.198752    7.302823   -1.078101
     58          6           0        2.981952   -3.339771   -0.260254
     59          6           0        4.320283   -3.687121   -0.330693
     60          6           0        4.822034   -5.092211   -0.474445
     61          6           0        5.061263   -2.459886   -0.222547
     62          6           0        6.443422   -2.202909   -0.213368
     63          6           0        7.404220   -3.338746   -0.360471
     64          6           0        7.837845   -3.736329   -1.633264
     65          6           0        8.730668   -4.793357   -1.777051
     66          6           0        9.198325   -5.464782   -0.634963
     67          6           0        8.769412   -5.073338    0.644369
     68          6           0        7.876634   -4.014652    0.773699
     69          6           0       10.116390   -6.553399   -0.775196
     70          7           0       10.864419   -7.440663   -0.889079
     71          6           0        4.999698    5.409444    0.819967
     72          6           0        4.546984    6.712344    0.999018
     73          1           0        3.372506    8.939853    2.282901
     74          1           0        3.714251   10.497047    1.481775
     75          1           0        3.128276    9.114346    0.518236
     76          1           0        7.524401    8.346271    0.757524
     77          1           0        8.320837    6.019875    0.438429
     78          1           0        7.966973    3.726786    0.289087
     79          1           0        5.103169    2.636436    0.542173
     80          1           0        8.980016    1.677082    0.318688
     81          1           0        9.687388   -1.847717    0.758573
     82          1           0        9.691106   -1.666486   -0.991120
     83          1           0       10.405707   -0.405801    0.025737
     84          1           0        1.856966   -0.077120    0.263911
     85          1           0        0.313657   -2.646806   -0.422007
     86          1           0       -1.945370   -2.523397   -0.635270
     87          1           0       -5.116852    0.048572   -1.689234
     88          1           0       -4.731910   -1.345067   -2.688433
     89          1           0       -6.671530   -2.037638    0.099650
     90          1           0       -9.262868   -1.399014   -0.572252
     91          1           0       -8.945722   -2.827735   -1.569730
     92          1           0       -8.277543   -4.096571    0.496949
     93          1           0       -8.599758   -2.645628    1.469500
     94          1           0      -10.444845   -4.052718    1.353560
     95          1           0       -5.195840   -3.454751   -1.211803
     96          1           0       -3.492232   -3.291955   -1.552618
     97          1           0       -4.876248   -2.531259    1.603244
     98          1           0       -3.682392   -5.000087    2.745585
     99          1           0       -4.189518   -3.595006    3.690996
    100          1           0       -5.777939   -5.445639    3.979322
    101          1           0       -6.570448   -4.065421    3.197948
    102          1           0       -5.587062   -6.286845    1.756077
    103          1           0       -2.089833    2.160635    0.797101
    104          1           0        0.034233    1.068603    0.571118
    105          1           0       -5.434355   -0.474394    1.334192
    106          1           0       -5.520694    0.981295    2.309864
    107          1           0       -6.408134    1.806263   -0.826218
    108          1           0       -8.321508    2.540754   -1.704897
    109          1           0       -8.746225    0.831993   -1.612062
    110          1           0       -9.447786    2.875768    0.555212
    111          1           0      -10.483383    2.479286   -0.823379
    112          1           0       -9.562947    0.590036    1.046466
    113          1           0       -5.423437    3.002492    0.940815
    114          1           0       -3.711131    3.007418    1.252471
    115          1           0       -3.042023    4.669665   -0.057011
    116          1           0       -2.376761    5.607883   -2.118798
    117          1           0       -3.535224    4.573714   -2.971608
    118          1           0       -4.273025    6.900486   -3.068384
    119          1           0       -5.421910    5.953320   -2.103880
    120          1           0       -4.460747    6.876517   -0.249295
    121          1           0        2.148509   -4.027907   -0.290760
    122          1           0        5.441797   -5.395899    0.374754
    123          1           0        3.973494   -5.778470   -0.536351
    124          1           0        5.429202   -5.221272   -1.375511
    125          1           0        7.474378   -3.215924   -2.513019
    126          1           0        9.066067   -5.100709   -2.761434
    127          1           0        9.134496   -5.596063    1.521523
    128          1           0        7.543356   -3.709806    1.760076
    129          1           0        4.272660    4.603874    0.841798
    130          1           0        3.490189    6.891733    1.154427
 ---------------------------------------------------------------------
 Rotational constants (GHZ):           0.0302677           0.0126639           0.0093448
 Leave Link  202 at Fri Nov  7 12:32:55 2025, MaxMem= 30870077440 cpu:               0.2 elap:               0.0
 (Enter /public/software/gauss/g16/l301.exe)
 Standard basis: def2TZVPP (5D, 7F)
 Ernie: Thresh=  0.10000D-02 Tol=  0.10000D-05 Strict=F.
 There are  3462 symmetry adapted cartesian basis functions of A   symmetry.
 There are  3044 symmetry adapted basis functions of A   symmetry.
  3044 basis functions,  4658 primitive gaussians,  3462 cartesian basis functions
   261 alpha electrons      261 beta electrons
       nuclear repulsion energy     10902.8416148947 Hartrees.
 IExCor= 4336 DFT=T Ex+Corr=M062X ExCW=0 ScaHFX=  0.540000
 ScaDFX=  1.000000  1.000000  1.000000  1.000000 ScalE2=  1.000000  1.000000
 IRadAn=      5 IRanWt=     -1 IRanGd=            0 ICorTp=0 IEmpDi=131
 NAtoms=  130 NActive=  130 NUniq=  130 SFac= 1.00D+00 NAtFMM=   60 NAOKFM=T Big=T
 Integral buffers will be    131072 words long.
 Raffenetti 2 integral format.
 Two-electron integral symmetry is turned on.
 R6Disp:  Grimme-D3 Dispersion energy=       -0.0142220832 Hartrees.
 Nuclear repulsion after empirical dispersion term =    10902.8273928116 Hartrees.
 ------------------------------------------------------------------------------
 Polarizable Continuum Model (PCM)
 =================================
 Model                : PCM.
 Atomic radii         : UFF (Universal Force Field).
 Polarization charges : Total charges.
 Charge compensation  : None.
 Solution method      : On-the-fly selection.
 Cavity type          : Scaled VdW (van der Waals Surface) (Alpha=1.100).
 Cavity algorithm     : GePol (No added spheres)
                        Default sphere list used, NSphG=  130.
                        Lebedev-Laikov grids with approx.  5.0 points / Ang**2.
                        Smoothing algorithm: York/Karplus (Gamma=1.0000).
                        Polarization charges: spherical gaussians, with
                                              point-specific exponents (IZeta= 3).
                        Self-potential: point-specific (ISelfS= 7).
                        Self-field    : sphere-specific E.n sum rule (ISelfD= 2).
 Solvent              : Water, Eps=  78.355300 Eps(inf)=   1.777849
 ------------------------------------------------------------------------------
 GePol: Number of generator spheres                  =     130
 GePol: Total number of spheres                      =     130
 GePol: Number of exposed spheres                    =     130 (100.00%)
 GePol: Number of points                             =    8697
 GePol: Average weight of points                     =       0.13
 GePol: Minimum weight of points                     =   0.14D-11
 GePol: Maximum weight of points                     =    0.20577
 GePol: Number of points with low weight             =     582
 GePol: Fraction of low-weight points (<1% of avg)   =       6.69%
 GePol: Cavity surface area                          =   1091.933 Ang**2
 GePol: Cavity volume                                =   1308.558 Ang**3
 Leave Link  301 at Fri Nov  7 12:32:55 2025, MaxMem= 30870077440 cpu:               5.5 elap:               0.1
 (Enter /public/software/gauss/g16/l302.exe)
 NPDir=0 NMtPBC=     1 NCelOv=     1 NCel=       1 NClECP=     1 NCelD=      1
         NCelK=      1 NCelE2=     1 NClLst=     1 CellRange=     0.0.
 One-electron integrals computed using PRISM.
 One-electron integral symmetry used in STVInt
   1 Symmetry operations used in ECPInt.
 ECPInt:  NShTT=  650370 NPrTT= 1815318 LenC2=  314147 LenP2D=  574695.
 LDataN:  DoStor=T MaxTD1= 6 Len=  172
 Number of processors reduced to  53 by ecpmxn.
 NBasis=  3044 RedAO= T EigKep=  3.51D-06  NBF=  3044
 NBsUse=  3044 1.00D-06 EigRej= -1.00D+00 NBFU=  3044
 Precomputing XC quadrature grid using
 IXCGrd= 4 IRadAn=           5 IRanWt=          -1 IRanGd=           0 AccXCQ= 0.00D+00.
 Generated NRdTot=       0 NPtTot=           0 NUsed=           0 NTot=          32
 NSgBfM=  3031  3031  3031  3031  3031 MxSgAt=   130 MxSgA2=   130.
 Leave Link  302 at Fri Nov  7 12:33:32 2025, MaxMem= 30870077440 cpu:            2301.4 elap:              36.1
 (Enter /public/software/gauss/g16/l303.exe)
 DipDrv:  MaxL=1.
 Leave Link  303 at Fri Nov  7 12:33:33 2025, MaxMem= 30870077440 cpu:              65.5 elap:               1.1
 (Enter /public/software/gauss/g16/l401.exe)
 ExpMin= 6.06D-02 ExpMax= 3.55D+04 ExpMxC= 1.21D+03 IAcc=3 IRadAn=         5 AccDes= 0.00D+00
 Harris functional with IExCor= 1009 and IRadAn=       5 diagonalized for initial guess.
 HarFok:  IExCor= 1009 AccDes= 0.00D+00 IRadAn=         5 IDoV= 1 UseB2=F ITyADJ=14
 ICtDFT=  3500011 ScaDFX=  1.000000  1.000000  1.000000  1.000000
 FoFCou: FMM=F IPFlag=           0 FMFlag=      100000 FMFlg1=        2001
         NFxFlg=           0 DoJE=T BraDBF=F KetDBF=T FulRan=T
         wScrn=  0.000000 ICntrl=       500 IOpCl=  0 I1Cent=   200000004 NGrid=           0
         NMat0=    1 NMatS0=      1 NMatT0=    0 NMatD0=    1 NMtDS0=    0 NMtDT0=    0
 Petite list used in FoFCou.
 Harris En= -3371.10364143746    
 JPrj=0 DoOrth=F DoCkMO=F.
 Leave Link  401 at Fri Nov  7 12:34:01 2025, MaxMem= 30870077440 cpu:            1812.2 elap:              28.5
 (Enter /public/software/gauss/g16/l502.exe)
 Integral symmetry usage will be decided dynamically.
 Closed shell SCF:
 Using DIIS extrapolation, IDIIS=  1040.
 NGot= 30870077440 LenX= 30845855826 LenY= 30833866920
 Requested convergence on RMS density matrix=1.00D-08 within 128 cycles.
 Requested convergence on MAX density matrix=1.00D-06.
 Requested convergence on             energy=1.00D-06.
 No special actions if energy rises.
 Fock matrices will be formed incrementally for  20 cycles.

 Cycle   1  Pass 1  IDiag  1:
 FoFJK:  IHMeth= 1 ICntrl=       0 DoSepK=F KAlg= 0 I1Cent=           0 FoldK=F
 IRaf= 430000000 NMat=       1 IRICut=       1 DoRegI=T DoRafI=F ISym2E= 0 IDoP0=0 IntGTp=1.
 FoFCou: FMM=T IPFlag=           0 FMFlag=      100000 FMFlg1=        2001
         NFxFlg=           0 DoJE=F BraDBF=F KetDBF=F FulRan=T
         wScrn=  0.000000 ICntrl=         0 IOpCl=  0 I1Cent=           0 NGrid=           0
         NMat0=    1 NMatS0=      1 NMatT0=    0 NMatD0=    1 NMtDS0=    0 NMtDT0=    0
 Symmetry not used in FoFCou.
 FMM levels:  10  Number of levels for PrismC:   9
 Inv3:  Mode=1 IEnd=   226913427.
 Iteration    1 A*A^-1 deviation from unit magnitude is 7.33D-15 for   8671.
 Iteration    1 A*A^-1 deviation from orthogonality  is 4.97D-15 for   8684   5225.
 Iteration    1 A^-1*A deviation from unit magnitude is 6.88D-15 for   8671.
 Iteration    1 A^-1*A deviation from orthogonality  is 1.24D-13 for   4573   4466.
 E= -3371.29934779659    
 DIIS: error= 1.94D-02 at cycle   1 NSaved=   1.
 NSaved= 1 IEnMin= 1 EnMin= -3371.29934779659     IErMin= 1 ErrMin= 1.94D-02
 ErrMax= 1.94D-02  0.00D+00 EMaxC= 1.00D-01 BMatC= 2.27D+00 BMatP= 2.27D+00
 IDIUse=3 WtCom= 8.06D-01 WtEn= 1.94D-01
 Coeff-Com:  0.100D+01
 Coeff-En:   0.100D+01
 Coeff:      0.100D+01
 Gap=     0.152 Goal=   None    Shift=    0.000
 GapD=    0.152 DampG=1.000 DampE=0.500 DampFc=0.5000 IDamp=-1.
 Damping current iteration by 5.00D-01
 RMSDP=1.35D-03 MaxDP=5.41D-01              OVMax= 1.84D-01

 Cycle   2  Pass 1  IDiag  1:
 RMSU=  6.76D-04    CP:  9.92D-01
 E= -3372.09178160026     Delta-E=       -0.792433803668 Rises=F Damp=T
 DIIS: error= 4.48D-03 at cycle   2 NSaved=   2.
 NSaved= 2 IEnMin= 2 EnMin= -3372.09178160026     IErMin= 2 ErrMin= 4.48D-03
 ErrMax= 4.48D-03  0.00D+00 EMaxC= 1.00D-01 BMatC= 2.33D-01 BMatP= 2.27D+00
 IDIUse=3 WtCom= 9.55D-01 WtEn= 4.48D-02
 Coeff-Com: -0.775D-01 0.108D+01
 Coeff-En:   0.000D+00 0.100D+01
 Coeff:     -0.740D-01 0.107D+01
 Gap=     0.137 Goal=   None    Shift=    0.000
 RMSDP=4.66D-04 MaxDP=1.16D-01 DE=-7.92D-01 OVMax= 1.13D-01

 Cycle   3  Pass 1  IDiag  1:
 RMSU=  4.62D-04    CP:  9.72D-01  1.02D+00
 E= -3372.81895101711     Delta-E=       -0.727169416850 Rises=F Damp=F
 DIIS: error= 4.63D-03 at cycle   3 NSaved=   3.
 NSaved= 3 IEnMin= 3 EnMin= -3372.81895101711     IErMin= 2 ErrMin= 4.48D-03
 ErrMax= 4.63D-03  0.00D+00 EMaxC= 1.00D-01 BMatC= 1.41D-01 BMatP= 2.33D-01
 IDIUse=3 WtCom= 9.54D-01 WtEn= 4.63D-02
 Coeff-Com: -0.123D+00 0.507D+00 0.617D+00
 Coeff-En:   0.000D+00 0.000D+00 0.100D+01
 Coeff:     -0.118D+00 0.483D+00 0.635D+00
 Gap=     0.133 Goal=   None    Shift=    0.000
 RMSDP=1.74D-04 MaxDP=5.70D-02 DE=-7.27D-01 OVMax= 5.17D-02

 Cycle   4  Pass 1  IDiag  1:
 RMSU=  1.46D-04    CP:  9.74D-01  1.13D+00  8.60D-01
 E= -3372.91097835255     Delta-E=       -0.092027335433 Rises=F Damp=F
 DIIS: error= 1.66D-03 at cycle   4 NSaved=   4.
 NSaved= 4 IEnMin= 4 EnMin= -3372.91097835255     IErMin= 4 ErrMin= 1.66D-03
 ErrMax= 1.66D-03  0.00D+00 EMaxC= 1.00D-01 BMatC= 2.08D-02 BMatP= 1.41D-01
 IDIUse=3 WtCom= 9.83D-01 WtEn= 1.66D-02
 Coeff-Com: -0.448D-01 0.115D+00 0.325D+00 0.604D+00
 Coeff-En:   0.000D+00 0.000D+00 0.110D+00 0.890D+00
 Coeff:     -0.441D-01 0.114D+00 0.322D+00 0.609D+00
 Gap=     0.133 Goal=   None    Shift=    0.000
 RMSDP=5.99D-05 MaxDP=2.07D-02 DE=-9.20D-02 OVMax= 1.54D-02

 Cycle   5  Pass 1  IDiag  1:
 RMSU=  3.67D-05    CP:  9.74D-01  1.11D+00  8.99D-01  7.19D-01
 E= -3372.92737815817     Delta-E=       -0.016399805629 Rises=F Damp=F
 DIIS: error= 6.49D-04 at cycle   5 NSaved=   5.
 NSaved= 5 IEnMin= 5 EnMin= -3372.92737815817     IErMin= 5 ErrMin= 6.49D-04
 ErrMax= 6.49D-04  0.00D+00 EMaxC= 1.00D-01 BMatC= 9.48D-04 BMatP= 2.08D-02
 IDIUse=3 WtCom= 9.94D-01 WtEn= 6.49D-03
 Coeff-Com: -0.139D-01 0.276D-01 0.117D+00 0.284D+00 0.585D+00
 Coeff-En:   0.000D+00 0.000D+00 0.000D+00 0.000D+00 0.100D+01
 Coeff:     -0.139D-01 0.274D-01 0.116D+00 0.283D+00 0.588D+00
 Gap=     0.134 Goal=   None    Shift=    0.000
 RMSDP=1.37D-05 MaxDP=3.16D-03 DE=-1.64D-02 OVMax= 5.16D-03

 Cycle   6  Pass 1  IDiag  1:
 RMSU=  1.22D-05    CP:  9.73D-01  1.11D+00  8.99D-01  7.29D-01  8.49D-01
 E= -3372.92811350785     Delta-E=       -0.000735349675 Rises=F Damp=F
 DIIS: error= 2.19D-04 at cycle   6 NSaved=   6.
 NSaved= 6 IEnMin= 6 EnMin= -3372.92811350785     IErMin= 6 ErrMin= 2.19D-04
 ErrMax= 2.19D-04  0.00D+00 EMaxC= 1.00D-01 BMatC= 7.28D-05 BMatP= 9.48D-04
 IDIUse=3 WtCom= 9.98D-01 WtEn= 2.19D-03
 Coeff-Com: -0.181D-02 0.152D-02 0.199D-01 0.627D-01 0.255D+00 0.663D+00
 Coeff-En:   0.000D+00 0.000D+00 0.000D+00 0.000D+00 0.000D+00 0.100D+01
 Coeff:     -0.180D-02 0.152D-02 0.198D-01 0.625D-01 0.255D+00 0.663D+00
 Gap=     0.134 Goal=   None    Shift=    0.000
 RMSDP=4.60D-06 MaxDP=1.19D-03 DE=-7.35D-04 OVMax= 2.54D-03

 Cycle   7  Pass 1  IDiag  1:
 RMSU=  4.05D-06    CP:  9.73D-01  1.11D+00  9.00D-01  7.31D-01  9.01D-01
                    CP:  9.69D-01
 E= -3372.92817662312     Delta-E=       -0.000063115267 Rises=F Damp=F
 DIIS: error= 1.23D-04 at cycle   7 NSaved=   7.
 NSaved= 7 IEnMin= 7 EnMin= -3372.92817662312     IErMin= 7 ErrMin= 1.23D-04
 ErrMax= 1.23D-04  0.00D+00 EMaxC= 1.00D-01 BMatC= 1.37D-05 BMatP= 7.28D-05
 IDIUse=3 WtCom= 9.99D-01 WtEn= 1.23D-03
 Coeff-Com:  0.966D-03-0.289D-02-0.561D-02-0.809D-02 0.551D-01 0.336D+00
 Coeff-Com:  0.625D+00
 Coeff-En:   0.000D+00 0.000D+00 0.000D+00 0.000D+00 0.000D+00 0.000D+00
 Coeff-En:   0.100D+01
 Coeff:      0.965D-03-0.289D-02-0.560D-02-0.808D-02 0.550D-01 0.335D+00
 Coeff:      0.625D+00
 Gap=     0.135 Goal=   None    Shift=    0.000
 RMSDP=2.17D-06 MaxDP=5.10D-04 DE=-6.31D-05 OVMax= 1.60D-03

 Cycle   8  Pass 1  IDiag  1:
 RMSU=  1.67D-06    CP:  9.74D-01  1.11D+00  9.01D-01  7.31D-01  9.23D-01
                    CP:  1.05D+00  1.05D+00
 E= -3372.92819123653     Delta-E=       -0.000014613413 Rises=F Damp=F
 DIIS: error= 4.90D-05 at cycle   8 NSaved=   8.
 NSaved= 8 IEnMin= 8 EnMin= -3372.92819123653     IErMin= 8 ErrMin= 4.90D-05
 ErrMax= 4.90D-05  0.00D+00 EMaxC= 1.00D-01 BMatC= 2.39D-06 BMatP= 1.37D-05
 IDIUse=1 WtCom= 1.00D+00 WtEn= 0.00D+00
 Coeff-Com:  0.955D-03-0.198D-02-0.730D-02-0.189D-01-0.243D-01 0.275D-01
 Coeff-Com:  0.312D+00 0.711D+00
 Coeff:      0.955D-03-0.198D-02-0.730D-02-0.189D-01-0.243D-01 0.275D-01
 Coeff:      0.312D+00 0.711D+00
 Gap=     0.135 Goal=   None    Shift=    0.000
 RMSDP=1.29D-06 MaxDP=2.56D-04 DE=-1.46D-05 OVMax= 1.01D-03

 Cycle   9  Pass 1  IDiag  1:
 RMSU=  8.31D-07    CP:  9.74D-01  1.11D+00  9.01D-01  7.32D-01  9.38D-01
                    CP:  1.08D+00  1.23D+00  1.05D+00
 E= -3372.92819480511     Delta-E=       -0.000003568584 Rises=F Damp=F
 DIIS: error= 9.48D-06 at cycle   9 NSaved=   9.
 NSaved= 9 IEnMin= 9 EnMin= -3372.92819480511     IErMin= 9 ErrMin= 9.48D-06
 ErrMax= 9.48D-06  0.00D+00 EMaxC= 1.00D-01 BMatC= 2.43D-07 BMatP= 2.39D-06
 IDIUse=1 WtCom= 1.00D+00 WtEn= 0.00D+00
 Coeff-Com:  0.206D-03-0.339D-03-0.170D-02-0.562D-02-0.141D-01-0.311D-01
 Coeff-Com:  0.304D-01 0.259D+00 0.763D+00
 Coeff:      0.206D-03-0.339D-03-0.170D-02-0.562D-02-0.141D-01-0.311D-01
 Coeff:      0.304D-01 0.259D+00 0.763D+00
 Gap=     0.135 Goal=   None    Shift=    0.000
 RMSDP=4.38D-07 MaxDP=8.60D-05 DE=-3.57D-06 OVMax= 4.71D-04

 Cycle  10  Pass 1  IDiag  1:
 RMSU=  3.16D-07    CP:  9.74D-01  1.11D+00  9.02D-01  7.31D-01  9.40D-01
                    CP:  1.09D+00  1.25D+00  1.16D+00  1.13D+00
 E= -3372.92819529671     Delta-E=       -0.000000491596 Rises=F Damp=F
 DIIS: error= 3.52D-06 at cycle  10 NSaved=  10.
 NSaved=10 IEnMin=10 EnMin= -3372.92819529671     IErMin=10 ErrMin= 3.52D-06
 ErrMax= 3.52D-06  0.00D+00 EMaxC= 1.00D-01 BMatC= 5.99D-08 BMatP= 2.43D-07
 IDIUse=1 WtCom= 1.00D+00 WtEn= 0.00D+00
 Coeff-Com: -0.826D-04 0.211D-03 0.587D-03 0.867D-03-0.182D-02-0.187D-01
 Coeff-Com: -0.454D-01-0.206D-01 0.354D+00 0.731D+00
 Coeff:     -0.826D-04 0.211D-03 0.587D-03 0.867D-03-0.182D-02-0.187D-01
 Coeff:     -0.454D-01-0.206D-01 0.354D+00 0.731D+00
 Gap=     0.135 Goal=   None    Shift=    0.000
 RMSDP=2.36D-07 MaxDP=4.08D-05 DE=-4.92D-07 OVMax= 2.22D-04

 Cycle  11  Pass 1  IDiag  1:
 RMSU=  1.51D-07    CP:  9.74D-01  1.11D+00  9.02D-01  7.31D-01  9.40D-01
                    CP:  1.09D+00  1.28D+00  1.21D+00  1.26D+00  1.13D+00
 E= -3372.92819541239     Delta-E=       -0.000000115677 Rises=F Damp=F
 DIIS: error= 1.47D-06 at cycle  11 NSaved=  11.
 NSaved=11 IEnMin=11 EnMin= -3372.92819541239     IErMin=11 ErrMin= 1.47D-06
 ErrMax= 1.47D-06  0.00D+00 EMaxC= 1.00D-01 BMatC= 1.14D-08 BMatP= 5.99D-08
 IDIUse=1 WtCom= 1.00D+00 WtEn= 0.00D+00
 Coeff-Com: -0.738D-04 0.159D-03 0.576D-03 0.140D-02 0.156D-02-0.342D-02
 Coeff-Com: -0.267D-01-0.556D-01 0.368D-01 0.352D+00 0.693D+00
 Coeff:     -0.738D-04 0.159D-03 0.576D-03 0.140D-02 0.156D-02-0.342D-02
 Coeff:     -0.267D-01-0.556D-01 0.368D-01 0.352D+00 0.693D+00
 Gap=     0.135 Goal=   None    Shift=    0.000
 RMSDP=9.36D-08 MaxDP=1.40D-05 DE=-1.16D-07 OVMax= 1.17D-04

 Cycle  12  Pass 1  IDiag  1:
 RMSU=  5.33D-08    CP:  9.74D-01  1.11D+00  9.02D-01  7.31D-01  9.40D-01
                    CP:  1.09D+00  1.28D+00  1.22D+00  1.31D+00  1.30D+00
                    CP:  1.10D+00
 E= -3372.92819543489     Delta-E=       -0.000000022501 Rises=F Damp=F
 DIIS: error= 5.02D-07 at cycle  12 NSaved=  12.
 NSaved=12 IEnMin=12 EnMin= -3372.92819543489     IErMin=12 ErrMin= 5.02D-07
 ErrMax= 5.02D-07  0.00D+00 EMaxC= 1.00D-01 BMatC= 1.56D-09 BMatP= 1.14D-08
 IDIUse=1 WtCom= 1.00D+00 WtEn= 0.00D+00
 Coeff-Com: -0.136D-04 0.235D-04 0.124D-03 0.408D-03 0.929D-03 0.197D-02
 Coeff-Com: -0.219D-02-0.185D-01-0.501D-01 0.558D-02 0.258D+00 0.803D+00
 Coeff:     -0.136D-04 0.235D-04 0.124D-03 0.408D-03 0.929D-03 0.197D-02
 Coeff:     -0.219D-02-0.185D-01-0.501D-01 0.558D-02 0.258D+00 0.803D+00
 Gap=     0.135 Goal=   None    Shift=    0.000
 RMSDP=5.15D-08 MaxDP=6.74D-06 DE=-2.25D-08 OVMax= 7.73D-05

 Cycle  13  Pass 1  IDiag  1:
 RMSU=  2.84D-08    CP:  9.74D-01  1.11D+00  9.02D-01  7.31D-01  9.40D-01
                    CP:  1.09D+00  1.28D+00  1.23D+00  1.33D+00  1.37D+00
                    CP:  1.23D+00  1.40D+00
 E= -3372.92819544029     Delta-E=       -0.000000005399 Rises=F Damp=F
 DIIS: error= 2.48D-07 at cycle  13 NSaved=  13.
 NSaved=13 IEnMin=13 EnMin= -3372.92819544029     IErMin=13 ErrMin= 2.48D-07
 ErrMax= 2.48D-07  0.00D+00 EMaxC= 1.00D-01 BMatC= 2.99D-10 BMatP= 1.56D-09
 IDIUse=1 WtCom= 1.00D+00 WtEn= 0.00D+00
 Coeff-Com:  0.114D-04-0.258D-04-0.829D-04-0.169D-03-0.728D-04 0.122D-02
 Coeff-Com:  0.506D-02 0.601D-02-0.224D-01-0.677D-01-0.620D-01 0.244D+00
 Coeff-Com:  0.896D+00
 Coeff:      0.114D-04-0.258D-04-0.829D-04-0.169D-03-0.728D-04 0.122D-02
 Coeff:      0.506D-02 0.601D-02-0.224D-01-0.677D-01-0.620D-01 0.244D+00
 Coeff:      0.896D+00
 Gap=     0.135 Goal=   None    Shift=    0.000
 RMSDP=2.80D-08 MaxDP=4.59D-06 DE=-5.40D-09 OVMax= 4.89D-05

 Cycle  14  Pass 1  IDiag  1:
 RMSU=  1.39D-08    CP:  9.74D-01  1.11D+00  9.02D-01  7.31D-01  9.40D-01
                    CP:  1.09D+00  1.28D+00  1.23D+00  1.33D+00  1.41D+00
                    CP:  1.31D+00  1.69D+00  1.30D+00
 E= -3372.92819544140     Delta-E=       -0.000000001111 Rises=F Damp=F
 DIIS: error= 1.25D-07 at cycle  14 NSaved=  14.
 NSaved=14 IEnMin=14 EnMin= -3372.92819544140     IErMin=14 ErrMin= 1.25D-07
 ErrMax= 1.25D-07  0.00D+00 EMaxC= 1.00D-01 BMatC= 7.40D-11 BMatP= 2.99D-10
 IDIUse=1 WtCom= 1.00D+00 WtEn= 0.00D+00
 Coeff-Com:  0.680D-05-0.139D-04-0.564D-04-0.145D-03-0.212D-03 0.698D-04
 Coeff-Com:  0.247D-02 0.610D-02 0.137D-02-0.269D-01-0.805D-01-0.867D-01
 Coeff-Com:  0.304D+00 0.881D+00
 Coeff:      0.680D-05-0.139D-04-0.564D-04-0.145D-03-0.212D-03 0.698D-04
 Coeff:      0.247D-02 0.610D-02 0.137D-02-0.269D-01-0.805D-01-0.867D-01
 Coeff:      0.304D+00 0.881D+00
 Gap=     0.135 Goal=   None    Shift=    0.000
 RMSDP=1.62D-08 MaxDP=3.09D-06 DE=-1.11D-09 OVMax= 2.87D-05

 Cycle  15  Pass 1  IDiag  1:
 RMSU=  5.51D-09    CP:  9.74D-01  1.11D+00  9.02D-01  7.31D-01  9.40D-01
                    CP:  1.09D+00  1.28D+00  1.23D+00  1.33D+00  1.43D+00
                    CP:  1.34D+00  1.85D+00  1.61D+00  1.36D+00
 E= -3372.92819544290     Delta-E=       -0.000000001504 Rises=F Damp=F
 DIIS: error= 6.37D-08 at cycle  15 NSaved=  15.
 NSaved=15 IEnMin=15 EnMin= -3372.92819544290     IErMin=15 ErrMin= 6.37D-08
 ErrMax= 6.37D-08  0.00D+00 EMaxC= 1.00D-01 BMatC= 2.27D-11 BMatP= 7.40D-11
 IDIUse=1 WtCom= 1.00D+00 WtEn= 0.00D+00
 Coeff-Com:  0.339D-07 0.349D-06-0.507D-05-0.223D-04-0.803D-04-0.290D-03
 Coeff-Com: -0.200D-03 0.117D-02 0.638D-02 0.625D-02-0.192D-01-0.953D-01
 Coeff-Com: -0.968D-01 0.406D+00 0.792D+00
 Coeff:      0.339D-07 0.349D-06-0.507D-05-0.223D-04-0.803D-04-0.290D-03
 Coeff:     -0.200D-03 0.117D-02 0.638D-02 0.625D-02-0.192D-01-0.953D-01
 Coeff:     -0.968D-01 0.406D+00 0.792D+00
 Gap=     0.135 Goal=   None    Shift=    0.000
 RMSDP=6.89D-09 MaxDP=1.09D-06 DE=-1.50D-09 OVMax= 1.24D-05

 Cycle  16  Pass 1  IDiag  1:
 RMSU=  3.02D-09    CP:  9.74D-01  1.11D+00  9.02D-01  7.31D-01  9.40D-01
                    CP:  1.09D+00  1.28D+00  1.23D+00  1.33D+00  1.43D+00
                    CP:  1.35D+00  1.91D+00  1.70D+00  1.64D+00  1.22D+00
 E= -3372.92819544300     Delta-E=       -0.000000000102 Rises=F Damp=F
 DIIS: error= 2.91D-08 at cycle  16 NSaved=  16.
 NSaved=16 IEnMin=16 EnMin= -3372.92819544300     IErMin=16 ErrMin= 2.91D-08
 ErrMax= 2.91D-08  0.00D+00 EMaxC= 1.00D-01 BMatC= 4.16D-12 BMatP= 2.27D-11
 IDIUse=1 WtCom= 1.00D+00 WtEn= 0.00D+00
 Coeff-Com: -0.119D-05 0.265D-05 0.730D-05 0.147D-04-0.713D-06-0.145D-03
 Coeff-Com: -0.525D-03-0.531D-03 0.256D-02 0.768D-02 0.554D-02-0.281D-01
 Coeff-Com: -0.112D+00 0.283D-01 0.364D+00 0.732D+00
 Coeff:     -0.119D-05 0.265D-05 0.730D-05 0.147D-04-0.713D-06-0.145D-03
 Coeff:     -0.525D-03-0.531D-03 0.256D-02 0.768D-02 0.554D-02-0.281D-01
 Coeff:     -0.112D+00 0.283D-01 0.364D+00 0.732D+00
 Gap=     0.135 Goal=   None    Shift=    0.000
 RMSDP=2.80D-09 MaxDP=4.22D-07 DE=-1.02D-10 OVMax= 4.70D-06

 Error on total polarization charges =  0.02833
 SCF Done:  E(RM062X) =  -3372.92819544     A.U. after   16 cycles
            NFock= 16  Conv=0.28D-08     -V/T= 2.0054
 KE= 3.354783899792D+03 PE=-2.967243908802D+04 EE= 1.204189959997D+04
 Leave Link  502 at Fri Nov  7 13:18:26 2025, MaxMem= 30870077440 cpu:          167385.3 elap:            2664.7
 (Enter /public/software/gauss/g16/l601.exe)
 Copying SCF densities to generalized density rwf, IOpCl= 0 IROHF=0.
 Hyperfine terms turned off by default for NAtoms > 100.

 **********************************************************************

            Population analysis using the SCF density.

 **********************************************************************

 Orbital symmetries:
       Occupied  (A) (A) (A) (A) (A) (A) (A) (A) (A) (A) (A) (A)
                 (A) (A) (A) (A) (A) (A) (A) (A) (A) (A) (A) (A)
                 (A) (A) (A) (A) (A) (A) (A) (A) (A) (A) (A) (A)
                 (A) (A) (A) (A) (A) (A) (A) (A) (A) (A) (A) (A)
                 (A) (A) (A) (A) (A) (A) (A) (A) (A) (A) (A) (A)
                 (A) (A) (A) (A) (A) (A) (A) (A) (A) (A) (A) (A)
                 (A) (A) (A) (A) (A) (A) (A) (A) (A) (A) (A) (A)
                 (A) (A) (A) (A) (A) (A) (A) (A) (A) (A) (A) (A)
                 (A) (A) (A) (A) (A) (A) (A) (A) (A) (A) (A) (A)
                 (A) (A) (A) (A) (A) (A) (A) (A) (A) (A) (A) (A)
                 (A) (A) (A) (A) (A) (A) (A) (A) (A) (A) (A) (A)
                 (A) (A) (A) (A) (A) (A) (A) (A) (A) (A) (A) (A)
                 (A) (A) (A) (A) (A) (A) (A) (A) (A) (A) (A) (A)
                 (A) (A) (A) (A) (A) (A) (A) (A) (A) (A) (A) (A)
                 (A) (A) (A) (A) (A) (A) (A) (A) (A) (A) (A) (A)
                 (A) (A) (A) (A) (A) (A) (A) (A) (A) (A) (A) (A)
                 (A) (A) (A) (A) (A) (A) (A) (A) (A) (A) (A) (A)
                 (A) (A) (A) (A) (A) (A) (A) (A) (A) (A) (A) (A)
                 (A) (A) (A) (A) (A) (A) (A) (A) (A) (A) (A) (A)
                 (A) (A) (A) (A) (A) (A) (A) (A) (A) (A) (A) (A)
                 (A) (A) (A) (A) (A) (A) (A) (A) (A) (A) (A) (A)
                 (A) (A) (A) (A) (A) (A) (A) (A) (A)
       Virtual   (A) (A) (A) (A) (A) (A) (A) (A) (A) (A) (A) (A)
                 (A) (A) (A) (A) (A) (A) (A) (A) (A) (A) (A) (A)
                 (A) (A) (A) (A) (A) (A) (A) (A) (A) (A) (A) (A)
                 (A) (A) (A) (A) (A) (A) (A) (A) (A) (A) (A) (A)
                 (A) (A) (A) (A) (A) (A) (A) (A) (A) (A) (A) (A)
                 (A) (A) (A) (A) (A) (A) (A) (A) (A) (A) (A) (A)
                 (A) (A) (A) (A) (A) (A) (A) (A) (A) (A) (A) (A)
                 (A) (A) (A) (A) (A) (A) (A) (A) (A) (A) (A) (A)
                 (A) (A) (A) (A) (A) (A) (A) (A) (A) (A) (A) (A)
                 (A) (A) (A) (A) (A) (A) (A) (A) (A) (A) (A) (A)
                 (A) (A) (A) (A) (A) (A) (A) (A) (A) (A) (A) (A)
                 (A) (A) (A) (A) (A) (A) (A) (A) (A) (A) (A) (A)
                 (A) (A) (A) (A) (A) (A) (A) (A) (A) (A) (A) (A)
                 (A) (A) (A) (A) (A) (A) (A) (A) (A) (A) (A) (A)
                 (A) (A) (A) (A) (A) (A) (A) (A) (A) (A) (A) (A)
                 (A) (A) (A) (A) (A) (A) (A) (A) (A) (A) (A) (A)
                 (A) (A) (A) (A) (A) (A) (A) (A) (A) (A) (A) (A)
                 (A) (A) (A) (A) (A) (A) (A) (A) (A) (A) (A) (A)
                 (A) (A) (A) (A) (A) (A) (A) (A) (A) (A) (A) (A)
                 (A) (A) (A) (A) (A) (A) (A) (A) (A) (A) (A) (A)
                 (A) (A) (A) (A) (A) (A) (A) (A) (A) (A) (A) (A)
                 (A) (A) (A) (A) (A) (A) (A) (A) (A) (A) (A) (A)
                 (A) (A) (A) (A) (A) (A) (A) (A) (A) (A) (A) (A)
                 (A) (A) (A) (A) (A) (A) (A) (A) (A) (A) (A) (A)
                 (A) (A) (A) (A) (A) (A) (A) (A) (A) (A) (A) (A)
                 (A) (A) (A) (A) (A) (A) (A) (A) (A) (A) (A) (A)
                 (A) (A) (A) (A) (A) (A) (A) (A) (A) (A) (A) (A)
                 (A) (A) (A) (A) (A) (A) (A) (A) (A) (A) (A) (A)
                 (A) (A) (A) (A) (A) (A) (A) (A) (A) (A) (A) (A)
                 (A) (A) (A) (A) (A) (A) (A) (A) (A) (A) (A) (A)
                 (A) (A) (A) (A) (A) (A) (A) (A) (A) (A) (A) (A)
                 (A) (A) (A) (A) (A) (A) (A) (A) (A) (A) (A) (A)
                 (A) (A) (A) (A) (A) (A) (A) (A) (A) (A) (A) (A)
                 (A) (A) (A) (A) (A) (A) (A) (A) (A) (A) (A) (A)
                 (A) (A) (A) (A) (A) (A) (A) (A) (A) (A) (A) (A)
                 (A) (A) (A) (A) (A) (A) (A) (A) (A) (A) (A) (A)
                 (A) (A) (A) (A) (A) (A) (A) (A) (A) (A) (A) (A)
                 (A) (A) (A) (A) (A) (A) (A) (A) (A) (A) (A) (A)
                 (A) (A) (A) (A) (A) (A) (A) (A) (A) (A) (A) (A)
                 (A) (A) (A) (A) (A) (A) (A) (A) (A) (A) (A) (A)
                 (A) (A) (A) (A) (A) (A) (A) (A) (A) (A) (A) (A)
                 (A) (A) (A) (A) (A) (A) (A) (A) (A) (A) (A) (A)
                 (A) (A) (A) (A) (A) (A) (A) (A) (A) (A) (A) (A)
                 (A) (A) (A) (A) (A) (A) (A) (A) (A) (A) (A) (A)
                 (A) (A) (A) (A) (A) (A) (A) (A) (A) (A) (A) (A)
                 (A) (A) (A) (A) (A) (A) (A) (A) (A) (A) (A) (A)
                 (A) (A) (A) (A) (A) (A) (A) (A) (A) (A) (A) (A)
                 (A) (A) (A) (A) (A) (A) (A) (A) (A) (A) (A) (A)
                 (A) (A) (A) (A) (A) (A) (A) (A) (A) (A) (A) (A)
                 (A) (A) (A) (A) (A) (A) (A) (A) (A) (A) (A) (A)
                 (A) (A) (A) (A) (A) (A) (A) (A) (A) (A) (A) (A)
                 (A) (A) (A) (A) (A) (A) (A) (A) (A) (A) (A) (A)
                 (A) (A) (A) (A) (A) (A) (A) (A) (A) (A) (A) (A)
                 (A) (A) (A) (A) (A) (A) (A) (A) (A) (A) (A) (A)
                 (A) (A) (A) (A) (A) (A) (A) (A) (A) (A) (A) (A)
                 (A) (A) (A) (A) (A) (A) (A) (A) (A) (A) (A) (A)
                 (A) (A) (A) (A) (A) (A) (A) (A) (A) (A) (A) (A)
                 (A) (A) (A) (A) (A) (A) (A) (A) (A) (A) (A) (A)
                 (A) (A) (A) (A) (A) (A) (A) (A) (A) (A) (A) (A)
                 (A) (A) (A) (A) (A) (A) (A) (A) (A) (A) (A) (A)
                 (A) (A) (A) (A) (A) (A) (A) (A) (A) (A) (A) (A)
                 (A) (A) (A) (A) (A) (A) (A) (A) (A) (A) (A) (A)
                 (A) (A) (A) (A) (A) (A) (A) (A) (A) (A) (A) (A)
                 (A) (A) (A) (A) (A) (A) (A) (A) (A) (A) (A) (A)
                 (A) (A) (A) (A) (A) (A) (A) (A) (A) (A) (A) (A)
                 (A) (A) (A) (A) (A) (A) (A) (A) (A) (A) (A) (A)
                 (A) (A) (A) (A) (A) (A) (A) (A) (A) (A) (A) (A)
                 (A) (A) (A) (A) (A) (A) (A) (A) (A) (A) (A) (A)
                 (A) (A) (A) (A) (A) (A) (A) (A) (A) (A) (A) (A)
                 (A) (A) (A) (A) (A) (A) (A) (A) (A) (A) (A) (A)
                 (A) (A) (A) (A) (A) (A) (A) (A) (A) (A) (A) (A)
                 (A) (A) (A) (A) (A) (A) (A) (A) (A) (A) (A) (A)
                 (A) (A) (A) (A) (A) (A) (A) (A) (A) (A) (A) (A)
                 (A) (A) (A) (A) (A) (A) (A) (A) (A) (A) (A) (A)
                 (A) (A) (A) (A) (A) (A) (A) (A) (A) (A) (A) (A)
                 (A) (A) (A) (A) (A) (A) (A) (A) (A) (A) (A) (A)
                 (A) (A) (A) (A) (A) (A) (A) (A) (A) (A) (A) (A)
                 (A) (A) (A) (A) (A) (A) (A) (A) (A) (A) (A) (A)
                 (A) (A) (A) (A) (A) (A) (A) (A) (A) (A) (A) (A)
                 (A) (A) (A) (A) (A) (A) (A) (A) (A) (A) (A) (A)
                 (A) (A) (A) (A) (A) (A) (A) (A) (A) (A) (A) (A)
                 (A) (A) (A) (A) (A) (A) (A) (A) (A) (A) (A) (A)
                 (A) (A) (A) (A) (A) (A) (A) (A) (A) (A) (A) (A)
                 (A) (A) (A) (A) (A) (A) (A) (A) (A) (A) (A) (A)
                 (A) (A) (A) (A) (A) (A) (A) (A) (A) (A) (A) (A)
                 (A) (A) (A) (A) (A) (A) (A) (A) (A) (A) (A) (A)
                 (A) (A) (A) (A) (A) (A) (A) (A) (A) (A) (A) (A)
                 (A) (A) (A) (A) (A) (A) (A) (A) (A) (A) (A) (A)
                 (A) (A) (A) (A) (A) (A) (A) (A) (A) (A) (A) (A)
                 (A) (A) (A) (A) (A) (A) (A) (A) (A) (A) (A) (A)
                 (A) (A) (A) (A) (A) (A) (A) (A) (A) (A) (A) (A)
                 (A) (A) (A) (A) (A) (A) (A) (A) (A) (A) (A) (A)
                 (A) (A) (A) (A) (A) (A) (A) (A) (A) (A) (A) (A)
                 (A) (A) (A) (A) (A) (A) (A) (A) (A) (A) (A) (A)
                 (A) (A) (A) (A) (A) (A) (A) (A) (A) (A) (A) (A)
                 (A) (A) (A) (A) (A) (A) (A) (A) (A) (A) (A) (A)
                 (A) (A) (A) (A) (A) (A) (A) (A) (A) (A) (A) (A)
                 (A) (A) (A) (A) (A) (A) (A) (A) (A) (A) (A) (A)
                 (A) (A) (A) (A) (A) (A) (A) (A) (A) (A) (A) (A)
                 (A) (A) (A) (A) (A) (A) (A) (A) (A) (A) (A) (A)
                 (A) (A) (A) (A) (A) (A) (A) (A) (A) (A) (A) (A)
                 (A) (A) (A) (A) (A) (A) (A) (A) (A) (A) (A) (A)
                 (A) (A) (A) (A) (A) (A) (A) (A) (A) (A) (A) (A)
                 (A) (A) (A) (A) (A) (A) (A) (A) (A) (A) (A) (A)
                 (A) (A) (A) (A) (A) (A) (A) (A) (A) (A) (A) (A)
                 (A) (A) (A) (A) (A) (A) (A) (A) (A) (A) (A) (A)
                 (A) (A) (A) (A) (A) (A) (A) (A) (A) (A) (A) (A)
                 (A) (A) (A) (A) (A) (A) (A) (A) (A) (A) (A) (A)
                 (A) (A) (A) (A) (A) (A) (A) (A) (A) (A) (A) (A)
                 (A) (A) (A) (A) (A) (A) (A) (A) (A) (A) (A) (A)
                 (A) (A) (A) (A) (A) (A) (A) (A) (A) (A) (A) (A)
                 (A) (A) (A) (A) (A) (A) (A) (A) (A) (A) (A) (A)
                 (A) (A) (A) (A) (A) (A) (A) (A) (A) (A) (A) (A)
                 (A) (A) (A) (A) (A) (A) (A) (A) (A) (A) (A) (A)
                 (A) (A) (A) (A) (A) (A) (A) (A) (A) (A) (A) (A)
                 (A) (A) (A) (A) (A) (A) (A) (A) (A) (A) (A) (A)
                 (A) (A) (A) (A) (A) (A) (A) (A) (A) (A) (A) (A)
                 (A) (A) (A) (A) (A) (A) (A) (A) (A) (A) (A) (A)
                 (A) (A) (A) (A) (A) (A) (A) (A) (A) (A) (A) (A)
                 (A) (A) (A) (A) (A) (A) (A) (A) (A) (A) (A) (A)
                 (A) (A) (A) (A) (A) (A) (A) (A) (A) (A) (A) (A)
                 (A) (A) (A) (A) (A) (A) (A) (A) (A) (A) (A) (A)
                 (A) (A) (A) (A) (A) (A) (A) (A) (A) (A) (A) (A)
                 (A) (A) (A) (A) (A) (A) (A) (A) (A) (A) (A) (A)
                 (A) (A) (A) (A) (A) (A) (A) (A) (A) (A) (A) (A)
                 (A) (A) (A) (A) (A) (A) (A) (A) (A) (A) (A) (A)
                 (A) (A) (A) (A) (A) (A) (A) (A) (A) (A) (A) (A)
                 (A) (A) (A) (A) (A) (A) (A) (A) (A) (A) (A) (A)
                 (A) (A) (A) (A) (A) (A) (A) (A) (A) (A) (A) (A)
                 (A) (A) (A) (A) (A) (A) (A) (A) (A) (A) (A) (A)
                 (A) (A) (A) (A) (A) (A) (A) (A) (A) (A) (A) (A)
                 (A) (A) (A) (A) (A) (A) (A) (A) (A) (A) (A) (A)
                 (A) (A) (A) (A) (A) (A) (A) (A) (A) (A) (A) (A)
                 (A) (A) (A) (A) (A) (A) (A) (A) (A) (A) (A) (A)
                 (A) (A) (A) (A) (A) (A) (A) (A) (A) (A) (A) (A)
                 (A) (A) (A) (A) (A) (A) (A) (A) (A) (A) (A) (A)
                 (A) (A) (A) (A) (A) (A) (A) (A) (A) (A) (A) (A)
                 (A) (A) (A) (A) (A) (A) (A) (A) (A) (A) (A) (A)
                 (A) (A) (A) (A) (A) (A) (A) (A) (A) (A) (A) (A)
                 (A) (A) (A) (A) (A) (A) (A) (A) (A) (A) (A) (A)
                 (A) (A) (A) (A) (A) (A) (A) (A) (A) (A) (A) (A)
                 (A) (A) (A) (A) (A) (A) (A) (A) (A) (A) (A) (A)
                 (A) (A) (A) (A) (A) (A) (A) (A) (A) (A) (A) (A)
                 (A) (A) (A) (A) (A) (A) (A) (A) (A) (A) (A) (A)
                 (A) (A) (A) (A) (A) (A) (A) (A) (A) (A) (A) (A)
                 (A) (A) (A) (A) (A) (A) (A) (A) (A) (A) (A) (A)
                 (A) (A) (A) (A) (A) (A) (A) (A) (A) (A) (A) (A)
                 (A) (A) (A) (A) (A) (A) (A) (A) (A) (A) (A) (A)
                 (A) (A) (A) (A) (A) (A) (A) (A) (A) (A) (A) (A)
                 (A) (A) (A) (A) (A) (A) (A) (A) (A) (A) (A) (A)
                 (A) (A) (A) (A) (A) (A) (A) (A) (A) (A) (A) (A)
                 (A) (A) (A) (A) (A) (A) (A) (A) (A) (A) (A) (A)
                 (A) (A) (A) (A) (A) (A) (A) (A) (A) (A) (A) (A)
                 (A) (A) (A) (A) (A) (A) (A) (A) (A) (A) (A) (A)
                 (A) (A) (A) (A) (A) (A) (A) (A) (A) (A) (A) (A)
                 (A) (A) (A) (A) (A) (A) (A) (A) (A) (A) (A) (A)
                 (A) (A) (A) (A) (A) (A) (A) (A) (A) (A) (A) (A)
                 (A) (A) (A) (A) (A) (A) (A) (A) (A) (A) (A) (A)
                 (A) (A) (A) (A) (A) (A) (A) (A) (A) (A) (A) (A)
                 (A) (A) (A) (A) (A) (A) (A) (A) (A) (A) (A) (A)
                 (A) (A) (A) (A) (A) (A) (A) (A) (A) (A) (A) (A)
                 (A) (A) (A) (A) (A) (A) (A) (A) (A) (A) (A) (A)
                 (A) (A) (A) (A) (A) (A) (A) (A) (A) (A) (A) (A)
                 (A) (A) (A) (A) (A) (A) (A) (A) (A) (A) (A) (A)
                 (A) (A) (A) (A) (A) (A) (A) (A) (A) (A) (A) (A)
                 (A) (A) (A) (A) (A) (A) (A) (A) (A) (A) (A) (A)
                 (A) (A) (A) (A) (A) (A) (A) (A) (A) (A) (A) (A)
                 (A) (A) (A) (A) (A) (A) (A) (A) (A) (A) (A) (A)
                 (A) (A) (A) (A) (A) (A) (A) (A) (A) (A) (A) (A)
                 (A) (A) (A) (A) (A) (A) (A) (A) (A) (A) (A) (A)
                 (A) (A) (A) (A) (A) (A) (A) (A) (A) (A) (A) (A)
                 (A) (A) (A) (A) (A) (A) (A) (A) (A) (A) (A) (A)
                 (A) (A) (A) (A) (A) (A) (A) (A) (A) (A) (A) (A)
                 (A) (A) (A) (A) (A) (A) (A) (A) (A) (A) (A) (A)
                 (A) (A) (A) (A) (A) (A) (A) (A) (A) (A) (A) (A)
                 (A) (A) (A) (A) (A) (A) (A) (A) (A) (A) (A) (A)
                 (A) (A) (A) (A) (A) (A) (A) (A) (A) (A) (A) (A)
                 (A) (A) (A) (A) (A) (A) (A) (A) (A) (A) (A) (A)
                 (A) (A) (A) (A) (A) (A) (A) (A) (A) (A) (A) (A)
                 (A) (A) (A) (A) (A) (A) (A) (A) (A) (A) (A) (A)
                 (A) (A) (A) (A) (A) (A) (A) (A) (A) (A) (A) (A)
                 (A) (A) (A) (A) (A) (A) (A) (A) (A) (A) (A) (A)
                 (A) (A) (A) (A) (A) (A) (A) (A) (A) (A) (A) (A)
                 (A) (A) (A) (A) (A) (A) (A) (A) (A) (A) (A) (A)
                 (A) (A) (A) (A) (A) (A) (A) (A) (A) (A) (A) (A)
                 (A) (A) (A) (A) (A) (A) (A) (A) (A) (A) (A) (A)
                 (A) (A) (A) (A) (A) (A) (A) (A) (A) (A) (A) (A)
                 (A) (A) (A) (A) (A) (A) (A) (A) (A) (A) (A) (A)
                 (A) (A) (A) (A) (A) (A) (A) (A) (A) (A) (A) (A)
                 (A) (A) (A) (A) (A) (A) (A) (A) (A) (A) (A) (A)
                 (A) (A) (A) (A) (A) (A) (A) (A) (A) (A) (A) (A)
                 (A) (A) (A) (A) (A) (A) (A) (A) (A) (A) (A) (A)
                 (A) (A) (A) (A) (A) (A) (A) (A) (A) (A) (A) (A)
                 (A) (A) (A) (A) (A) (A) (A) (A) (A) (A) (A) (A)
                 (A) (A) (A) (A) (A) (A) (A) (A) (A) (A) (A) (A)
                 (A) (A) (A) (A) (A) (A) (A) (A) (A) (A) (A) (A)
                 (A) (A) (A) (A) (A) (A) (A) (A) (A) (A) (A) (A)
                 (A) (A) (A) (A) (A) (A) (A) (A) (A) (A) (A) (A)
                 (A) (A) (A) (A) (A) (A) (A) (A) (A) (A) (A) (A)
                 (A) (A) (A) (A) (A) (A) (A) (A) (A) (A) (A) (A)
                 (A) (A) (A) (A) (A) (A) (A) (A) (A) (A) (A) (A)
                 (A) (A) (A) (A) (A) (A) (A) (A) (A) (A) (A) (A)
                 (A) (A) (A) (A) (A) (A) (A) (A) (A) (A) (A) (A)
                 (A) (A) (A) (A) (A) (A) (A) (A) (A) (A) (A) (A)
                 (A) (A) (A) (A) (A) (A) (A) (A) (A) (A) (A) (A)
                 (A) (A) (A) (A) (A) (A) (A) (A) (A) (A) (A) (A)
                 (A) (A) (A) (A) (A) (A) (A) (A) (A) (A) (A) (A)
                 (A) (A) (A) (A) (A) (A) (A) (A) (A) (A) (A) (A)
                 (A) (A) (A) (A) (A) (A) (A) (A) (A) (A) (A) (A)
                 (A) (A) (A) (A) (A) (A) (A) (A) (A) (A) (A) (A)
                 (A) (A) (A) (A) (A) (A) (A) (A) (A) (A) (A) (A)
                 (A) (A) (A) (A) (A) (A) (A) (A) (A) (A) (A) (A)
                 (A) (A) (A) (A) (A) (A) (A) (A) (A) (A) (A) (A)
                 (A) (A) (A) (A) (A) (A) (A) (A) (A) (A) (A) (A)
                 (A) (A) (A) (A) (A) (A) (A) (A) (A) (A) (A) (A)
                 (A) (A) (A) (A) (A) (A) (A) (A) (A) (A) (A) (A)
                 (A) (A) (A) (A) (A) (A) (A) (A) (A) (A) (A) (A)
                 (A) (A) (A) (A) (A) (A) (A) (A) (A) (A) (A) (A)
                 (A) (A) (A) (A) (A) (A) (A) (A) (A) (A) (A) (A)
                 (A) (A) (A) (A) (A) (A) (A) (A) (A) (A) (A) (A)
                 (A) (A) (A) (A) (A) (A) (A) (A) (A) (A) (A) (A)
                 (A) (A) (A) (A) (A) (A) (A) (A) (A) (A) (A) (A)
                 (A) (A) (A) (A) (A) (A) (A) (A) (A) (A) (A) (A)
                 (A) (A) (A) (A) (A) (A) (A) (A) (A) (A) (A) (A)
                 (A) (A) (A) (A) (A) (A) (A) (A) (A) (A) (A) (A)
                 (A) (A) (A) (A) (A) (A) (A) (A) (A) (A) (A) (A)
                 (A) (A) (A) (A) (A) (A) (A) (A) (A) (A) (A) (A)
                 (A) (A) (A) (A) (A) (A) (A) (A) (A) (A) (A) (A)
                 (A) (A) (A) (A) (A) (A) (A) (A) (A) (A) (A) (A)
                 (A) (A) (A) (A) (A) (A) (A) (A) (A) (A) (A) (A)
                 (A) (A) (A) (A) (A) (A) (A) (A) (A) (A) (A) (A)
                 (A) (A) (A) (A) (A) (A) (A) (A) (A) (A) (A)
 The electronic state is 1-A.
 Alpha  occ. eigenvalues --  -25.20695 -25.20490 -19.66757 -19.63515 -19.63502
 Alpha  occ. eigenvalues --  -19.63379 -19.61721 -19.61622 -19.61094 -19.60697
 Alpha  occ. eigenvalues --  -19.60689 -14.79611 -14.79241 -14.79072 -14.79006
 Alpha  occ. eigenvalues --  -14.78937 -14.78865 -14.78588 -14.78568 -14.77236
 Alpha  occ. eigenvalues --  -10.66752 -10.66715 -10.66114 -10.66007 -10.61882
 Alpha  occ. eigenvalues --  -10.61070 -10.60617 -10.60531 -10.60477 -10.60406
 Alpha  occ. eigenvalues --  -10.60248 -10.60033 -10.59844 -10.59830 -10.59322
 Alpha  occ. eigenvalues --  -10.59216 -10.59196 -10.59180 -10.59174 -10.59150
 Alpha  occ. eigenvalues --  -10.59135 -10.59133 -10.58912 -10.58669 -10.58238
 Alpha  occ. eigenvalues --  -10.58219 -10.58139 -10.58011 -10.57952 -10.57948
 Alpha  occ. eigenvalues --  -10.57252 -10.57155 -10.57152 -10.57142 -10.56787
 Alpha  occ. eigenvalues --  -10.56778 -10.56549 -10.56051 -10.55960 -10.55955
 Alpha  occ. eigenvalues --  -10.55929 -10.55772 -10.55745 -10.55694 -10.55622
 Alpha  occ. eigenvalues --  -10.55331 -10.54974 -10.54431 -10.54390 -10.54165
 Alpha  occ. eigenvalues --  -10.54126  -7.13322  -1.32509  -1.29256  -1.19583
 Alpha  occ. eigenvalues --   -1.17750  -1.17420  -1.16873  -1.16671  -1.15166
 Alpha  occ. eigenvalues --   -1.15140  -1.14878  -1.12955  -1.10761  -1.08847
 Alpha  occ. eigenvalues --   -1.08810  -1.06814  -1.05240  -1.04663  -1.04461
 Alpha  occ. eigenvalues --   -1.04091  -1.03273  -0.99814  -0.97495  -0.97327
 Alpha  occ. eigenvalues --   -0.94562  -0.91905  -0.91789  -0.90784  -0.90457
 Alpha  occ. eigenvalues --   -0.88256  -0.88113  -0.87811  -0.87427  -0.87044
 Alpha  occ. eigenvalues --   -0.86800  -0.85937  -0.85594  -0.85107  -0.84655
 Alpha  occ. eigenvalues --   -0.83548  -0.83023  -0.81812  -0.81312  -0.80013
 Alpha  occ. eigenvalues --   -0.79866  -0.78629  -0.77305  -0.76359  -0.73976
 Alpha  occ. eigenvalues --   -0.73675  -0.73320  -0.72867  -0.72278  -0.71962
 Alpha  occ. eigenvalues --   -0.71859  -0.70734  -0.70180  -0.70049  -0.68811
 Alpha  occ. eigenvalues --   -0.68299  -0.68035  -0.67919  -0.66769  -0.66357
 Alpha  occ. eigenvalues --   -0.66068  -0.64890  -0.64873  -0.64442  -0.63572
 Alpha  occ. eigenvalues --   -0.62881  -0.62145  -0.61748  -0.61539  -0.61460
 Alpha  occ. eigenvalues --   -0.61231  -0.60560  -0.60290  -0.59963  -0.59701
 Alpha  occ. eigenvalues --   -0.58840  -0.58680  -0.58516  -0.58250  -0.57853
 Alpha  occ. eigenvalues --   -0.57448  -0.57239  -0.56942  -0.56619  -0.56564
 Alpha  occ. eigenvalues --   -0.56420  -0.55851  -0.55512  -0.55325  -0.55125
 Alpha  occ. eigenvalues --   -0.54857  -0.54231  -0.54174  -0.54037  -0.53807
 Alpha  occ. eigenvalues --   -0.53427  -0.53290  -0.53085  -0.52754  -0.52633
 Alpha  occ. eigenvalues --   -0.52403  -0.52206  -0.52058  -0.52003  -0.51682
 Alpha  occ. eigenvalues --   -0.51433  -0.51336  -0.51143  -0.51118  -0.50635
 Alpha  occ. eigenvalues --   -0.50332  -0.50271  -0.49788  -0.49737  -0.49496
 Alpha  occ. eigenvalues --   -0.49351  -0.49322  -0.49084  -0.49067  -0.48600
 Alpha  occ. eigenvalues --   -0.48322  -0.48164  -0.48043  -0.47968  -0.47767
 Alpha  occ. eigenvalues --   -0.47481  -0.47382  -0.47163  -0.47130  -0.47005
 Alpha  occ. eigenvalues --   -0.46852  -0.46655  -0.46546  -0.46331  -0.46326
 Alpha  occ. eigenvalues --   -0.45996  -0.45476  -0.45173  -0.45141  -0.44949
 Alpha  occ. eigenvalues --   -0.44671  -0.44584  -0.44512  -0.44220  -0.43993
 Alpha  occ. eigenvalues --   -0.43835  -0.43570  -0.43117  -0.42991  -0.42619
 Alpha  occ. eigenvalues --   -0.42035  -0.41969  -0.41707  -0.41673  -0.41514
 Alpha  occ. eigenvalues --   -0.41426  -0.41277  -0.41218  -0.40549  -0.40191
 Alpha  occ. eigenvalues --   -0.39669  -0.38491  -0.37930  -0.37588  -0.37043
 Alpha  occ. eigenvalues --   -0.36541  -0.36217  -0.36174  -0.35332  -0.35026
 Alpha  occ. eigenvalues --   -0.34668  -0.34369  -0.34149  -0.33829  -0.33567
 Alpha  occ. eigenvalues --   -0.33114  -0.32944  -0.32786  -0.32720  -0.32345
 Alpha  occ. eigenvalues --   -0.32319  -0.31352  -0.30455  -0.28807  -0.26669
 Alpha  occ. eigenvalues --   -0.23120
 Alpha virt. eigenvalues --   -0.09625  -0.03916  -0.03680  -0.01799  -0.00785
 Alpha virt. eigenvalues --    0.00278   0.01008   0.02691   0.03042   0.03329
 Alpha virt. eigenvalues --    0.03984   0.04578   0.04965   0.05365   0.05425
 Alpha virt. eigenvalues --    0.05478   0.05967   0.06038   0.06675   0.06869
 Alpha virt. eigenvalues --    0.07068   0.07106   0.07814   0.07979   0.08084
 Alpha virt. eigenvalues --    0.08231   0.08359   0.08535   0.08746   0.08852
 Alpha virt. eigenvalues --    0.09024   0.09258   0.09519   0.09762   0.09922
 Alpha virt. eigenvalues --    0.10199   0.10339   0.10539   0.10632   0.10973
 Alpha virt. eigenvalues --    0.11070   0.11281   0.11375   0.11646   0.11778
 Alpha virt. eigenvalues --    0.12157   0.12304   0.12672   0.12737   0.12834
 Alpha virt. eigenvalues --    0.12996   0.13104   0.13320   0.13379   0.13453
 Alpha virt. eigenvalues --    0.13677   0.13990   0.14056   0.14223   0.14449
 Alpha virt. eigenvalues --    0.14513   0.14786   0.14882   0.15189   0.15236
 Alpha virt. eigenvalues --    0.15377   0.15477   0.15545   0.15580   0.15645
 Alpha virt. eigenvalues --    0.15732   0.15913   0.16007   0.16132   0.16299
 Alpha virt. eigenvalues --    0.16490   0.16683   0.16958   0.17217   0.17426
 Alpha virt. eigenvalues --    0.17530   0.17672   0.17774   0.17827   0.17875
 Alpha virt. eigenvalues --    0.18163   0.18481   0.18577   0.18591   0.18831
 Alpha virt. eigenvalues --    0.18870   0.19031   0.19398   0.19662   0.19728
 Alpha virt. eigenvalues --    0.19967   0.19997   0.20429   0.20694   0.20868
 Alpha virt. eigenvalues --    0.20942   0.21125   0.21200   0.21268   0.21402
 Alpha virt. eigenvalues --    0.21645   0.21865   0.21989   0.22098   0.22335
 Alpha virt. eigenvalues --    0.22491   0.22685   0.22817   0.22879   0.22937
 Alpha virt. eigenvalues --    0.23136   0.23249   0.23588   0.23699   0.23866
 Alpha virt. eigenvalues --    0.23900   0.24004   0.24300   0.24484   0.24743
 Alpha virt. eigenvalues --    0.24813   0.24972   0.25301   0.25344   0.25370
 Alpha virt. eigenvalues --    0.25496   0.25713   0.25792   0.25900   0.26284
 Alpha virt. eigenvalues --    0.26342   0.26629   0.26896   0.26905   0.27091
 Alpha virt. eigenvalues --    0.27372   0.27483   0.27537   0.27635   0.27721
 Alpha virt. eigenvalues --    0.27901   0.28023   0.28070   0.28142   0.28499
 Alpha virt. eigenvalues --    0.28655   0.28788   0.28870   0.29023   0.29297
 Alpha virt. eigenvalues --    0.29514   0.29633   0.29795   0.30079   0.30136
 Alpha virt. eigenvalues --    0.30270   0.30581   0.30768   0.30848   0.31051
 Alpha virt. eigenvalues --    0.31326   0.31391   0.31470   0.31555   0.31820
 Alpha virt. eigenvalues --    0.31888   0.32265   0.32320   0.32492   0.32605
[...]
 Alpha virt. eigenvalues --    4.73604   4.74235   4.74405   4.74538   4.74817
 Alpha virt. eigenvalues --    4.75293   4.75515   4.75954   4.76140   4.76215
 Alpha virt. eigenvalues --    4.76479   4.76683   4.77046   4.77326   4.77535
 Alpha virt. eigenvalues --    4.78137   4.78752   4.79160   4.79560   4.79622
 Alpha virt. eigenvalues --    4.80020   4.80516   4.81105   4.81280   4.81541
 Alpha virt. eigenvalues --    4.81730   4.82234   4.82434   4.82626   4.83302
 Alpha virt. eigenvalues --    4.83464   4.83760   4.83838   4.84064   4.84485
 Alpha virt. eigenvalues --    4.84600   4.85146   4.85644   4.85695   4.85861
 Alpha virt. eigenvalues --    4.86166   4.86192   4.86513   4.86856   4.87171
 Alpha virt. eigenvalues --    4.87585   4.88243   4.88888   4.89134   4.89502
 Alpha virt. eigenvalues --    4.89641   4.89940   4.90367   4.90683   4.91133
 Alpha virt. eigenvalues --    4.91169   4.91396   4.91472   4.91684   4.92131
 Alpha virt. eigenvalues --    4.92178   4.92898   4.93029   4.93139   4.93553
 Alpha virt. eigenvalues --    4.93848   4.93983   4.94263   4.94520   4.94760
 Alpha virt. eigenvalues --    4.95083   4.95383   4.95496   4.95697   4.96047
 Alpha virt. eigenvalues --    4.96165   4.96466   4.96683   4.97017   4.97540
 Alpha virt. eigenvalues --    4.97628   4.98308   4.98449   4.99143   4.99467
 Alpha virt. eigenvalues --    4.99732   4.99985   5.01251   5.01346   5.01642
 Alpha virt. eigenvalues --    5.02221   5.02348   5.03315   5.03571   5.03862
 Alpha virt. eigenvalues --    5.04166   5.04442   5.04764   5.04985   5.05707
 Alpha virt. eigenvalues --    5.05833   5.05944   5.06386   5.06589   5.06764
 Alpha virt. eigenvalues --    5.07093   5.07605   5.07836   5.08280   5.09003
 Alpha virt. eigenvalues --    5.09175   5.09399   5.09545   5.09742   5.09851
 Alpha virt. eigenvalues --    5.10166   5.10311   5.10788   5.11364   5.11579
 Alpha virt. eigenvalues --    5.11934   5.12247   5.12767   5.12894   5.13015
 Alpha virt. eigenvalues --    5.13763   5.14826   5.15141   5.15369   5.15638
 Alpha virt. eigenvalues --    5.15690   5.16109   5.16467   5.16742   5.17113
 Alpha virt. eigenvalues --    5.17512   5.17611   5.18435   5.18509   5.19106
 Alpha virt. eigenvalues --    5.19217   5.19849   5.20008   5.20325   5.20552
 Alpha virt. eigenvalues --    5.20737   5.20884   5.21129   5.21226   5.21679
 Alpha virt. eigenvalues --    5.21902   5.22627   5.23004   5.23335   5.23567
 Alpha virt. eigenvalues --    5.24029   5.24511   5.24550   5.25001   5.25178
 Alpha virt. eigenvalues --    5.25709   5.26256   5.26335   5.26958   5.27286
 Alpha virt. eigenvalues --    5.27538   5.27815   5.28070   5.28304   5.28435
 Alpha virt. eigenvalues --    5.28529   5.28988   5.29081   5.29303   5.29364
 Alpha virt. eigenvalues --    5.29743   5.30108   5.30719   5.31034   5.31139
 Alpha virt. eigenvalues --    5.31393   5.31498   5.31941   5.32510   5.32608
 Alpha virt. eigenvalues --    5.32843   5.33164   5.33266   5.33323   5.33443
 Alpha virt. eigenvalues --    5.33652   5.34121   5.34491   5.34774   5.35604
 Alpha virt. eigenvalues --    5.35900   5.36087   5.36754   5.36791   5.37020
 Alpha virt. eigenvalues --    5.37338   5.37554   5.38071   5.38391   5.38521
 Alpha virt. eigenvalues --    5.38632   5.38848   5.39188   5.39406   5.39527
 Alpha virt. eigenvalues --    5.40079   5.40594   5.40777   5.40930   5.41198
 Alpha virt. eigenvalues --    5.41458   5.41897   5.42534   5.42820   5.43085
 Alpha virt. eigenvalues --    5.43717   5.43881   5.44003   5.44194   5.44662
 Alpha virt. eigenvalues --    5.45512   5.45725   5.46048   5.46751   5.46923
 Alpha virt. eigenvalues --    5.47200   5.47493   5.47770   5.48298   5.48848
 Alpha virt. eigenvalues --    5.49168   5.49480   5.49975   5.50410   5.51288
 Alpha virt. eigenvalues --    5.51398   5.51638   5.51776   5.52224   5.52450
 Alpha virt. eigenvalues --    5.52896   5.53178   5.53187   5.53335   5.53732
 Alpha virt. eigenvalues --    5.53882   5.54137   5.54855   5.54942   5.55523
 Alpha virt. eigenvalues --    5.55664   5.55768   5.56590   5.56725   5.56975
 Alpha virt. eigenvalues --    5.57369   5.57806   5.58135   5.58289   5.58983
 Alpha virt. eigenvalues --    5.59350   5.59495   5.59931   5.60027   5.60185
 Alpha virt. eigenvalues --    5.60228   5.60398   5.61580   5.62015   5.62338
 Alpha virt. eigenvalues --    5.62516   5.62657   5.63046   5.63212   5.63793
 Alpha virt. eigenvalues --    5.64365   5.64473   5.64622   5.64841   5.65413
 Alpha virt. eigenvalues --    5.65938   5.66428   5.66770   5.66819   5.67345
 Alpha virt. eigenvalues --    5.67748   5.68528   5.68947   5.69050   5.69258
 Alpha virt. eigenvalues --    5.69604   5.70628   5.70958   5.71596   5.72109
 Alpha virt. eigenvalues --    5.72748   5.73391   5.74139   5.74764   5.75499
 Alpha virt. eigenvalues --    5.75792   5.76031   5.76979   5.77140   5.78059
 Alpha virt. eigenvalues --    5.78537   5.79060   5.79517   5.80773   5.80950
 Alpha virt. eigenvalues --    5.81914   5.82577   5.83272   5.83936   5.84062
 Alpha virt. eigenvalues --    5.84762   5.85642   5.87652   5.88734   5.90102
 Alpha virt. eigenvalues --    5.90912   5.91614   5.92631   5.92790   5.93265
 Alpha virt. eigenvalues --    5.93392   5.94050   5.95161   5.95966   5.96318
 Alpha virt. eigenvalues --    5.96825   5.96938   5.97950   5.98832   5.99123
 Alpha virt. eigenvalues --    6.01926   6.01954   6.02060   6.02432   6.02664
 Alpha virt. eigenvalues --    6.03560   6.04442   6.04843   6.06070   6.06462
 Alpha virt. eigenvalues --    6.07706   6.08865   6.09074   6.09807   6.12114
 Alpha virt. eigenvalues --    6.12983   6.13507   6.15193   6.15678   6.16524
 Alpha virt. eigenvalues --    6.17015   6.18028   6.18423   6.19179   6.21912
 Alpha virt. eigenvalues --    6.28089   6.30325   6.34362   6.35506   6.36000
 Alpha virt. eigenvalues --    6.36837   6.37900   6.38537   6.39597   6.41722
 Alpha virt. eigenvalues --    6.41900   6.42682   6.43160   6.45029   6.45329
 Alpha virt. eigenvalues --    6.46097   6.46330   6.46665   6.48306   6.51556
 Alpha virt. eigenvalues --    6.52919   6.55229   6.59326   6.61518   6.64521
 Alpha virt. eigenvalues --    6.64672   6.64868   6.66094   6.66955   6.67738
 Alpha virt. eigenvalues --    6.68725   6.68882   6.69356   6.69963   6.70715
 Alpha virt. eigenvalues --    6.70972   6.71661   6.74346   6.75061   6.75192
 Alpha virt. eigenvalues --    6.76070   6.76146   6.76934   6.77012   6.83725
 Alpha virt. eigenvalues --    6.84841   6.85041   6.86003   6.86444   6.86696
 Alpha virt. eigenvalues --    6.87481   6.88336   6.88632   6.90934   6.91156
 Alpha virt. eigenvalues --    6.94274   6.94665   6.97248   6.98807   6.99033
 Alpha virt. eigenvalues --    6.99904   7.01468   7.01492   7.02526   7.04929
 Alpha virt. eigenvalues --    7.06604   7.07351   7.07831   7.09250   7.10282
 Alpha virt. eigenvalues --    7.10872   7.13598   7.14417   7.17095   7.18898
 Alpha virt. eigenvalues --    7.19413   7.22994   7.23750   7.27093   7.27341
 Alpha virt. eigenvalues --    7.32760   7.33632   7.33994   7.34434   7.35007
 Alpha virt. eigenvalues --    7.35364   7.36496   7.40261   7.41816   7.44694
 Alpha virt. eigenvalues --    7.53398   8.46028   8.46815   8.56071   8.57940
 Alpha virt. eigenvalues --    8.82223   8.85955   8.90813   8.91442   8.92289
 Alpha virt. eigenvalues --    8.99848  15.85880  22.86999  22.91717  22.92361
 Alpha virt. eigenvalues --   22.97469  23.03168  23.11925  23.14057  23.15765
 Alpha virt. eigenvalues --   23.17618  23.17721  23.18195  23.23193  23.23900
 Alpha virt. eigenvalues --   23.27603  23.28707  23.29461  23.32142  23.33178
 Alpha virt. eigenvalues --   23.33913  23.34058  23.34410  23.35729  23.36878
 Alpha virt. eigenvalues --   23.37346  23.39393  23.41574  23.45729  23.47218
 Alpha virt. eigenvalues --   23.48468  23.49279  23.50801  23.51248  23.52952
 Alpha virt. eigenvalues --   23.53806  23.54341  23.55419  23.55985  23.58366
 Alpha virt. eigenvalues --   23.58578  23.60077  23.63906  23.64247  23.65415
 Alpha virt. eigenvalues --   23.68090  23.73147  23.78382  23.86625  23.91757
 Alpha virt. eigenvalues --   24.04694  24.10120  24.26381  32.20009  33.11014
 Alpha virt. eigenvalues --   33.12676  33.13571  33.13897  33.16759  33.26367
 Alpha virt. eigenvalues --   33.30177  33.38838  44.08867  44.13284  44.15689
 Alpha virt. eigenvalues --   44.16344  44.17919  44.21622  44.24255  44.28831
 Alpha virt. eigenvalues --   44.48906  57.34848  57.54310
          Condensed to atoms (all electrons):
 Mulliken charges:
               1
     1  C   -0.248302
     2  O   -0.299695
     3  C    0.228670
     4  C   -0.189460
     5  C   -0.126258
     6  C   -0.015558
     7  C   -0.051379
     8  C   -0.134726
     9  C    0.020419
    10  C   -0.092064
    11  C   -0.023377
    12  C   -0.434566
    13  C    0.096917
    14  N   -0.104627
    15  B    0.346824
    16  F   -0.336307
    17  F   -0.367985
    18  N   -0.104558
    19  C    0.021179
    20  C   -0.102770
    21  C   -0.101479
    22  C   -0.016764
    23  C   -0.034880
    24  C   -0.025601
    25  N   -0.265822
    26  C   -0.245726
    27  C    0.294548
    28  O   -0.471246
    29  N   -0.208986
    30  C   -0.138705
    31  C   -0.062724
    32  O   -0.423791
    33  C   -0.306904
    34  C    0.326180
    35  O   -0.474630
    36  N   -0.224077
    37  C   -0.199105
    38  C   -0.039081
    39  O   -0.422305
    40  C    0.072063
    41  C   -0.147758
    42  C   -0.164462
    43  N   -0.197079
    44  C   -0.177790
    45  C    0.306639
    46  O   -0.508094
    47  N   -0.171407
    48  C   -0.187528
    49  C   -0.042823
    50  O   -0.460114
    51  C   -0.406458
    52  C    0.500158
    53  O   -0.507695
    54  N   -0.255928
    55  C   -0.163295
    56  C   -0.029155
    57  O   -0.431282
    58  C   -0.091163
    59  C   -0.020579
    60  C   -0.435756
    61  C    0.092809
    62  C    0.157990
    63  C   -0.252274
    64  C   -0.149994
    65  C   -0.074920
    66  C    0.108223
    67  C   -0.068901
    68  C   -0.173153
    69  C   -0.197291
    70  N   -0.072673
    71  C   -0.178882
    72  C   -0.165762
    73  H    0.148616
    74  H    0.149843
    75  H    0.148695
    76  H    0.157926
    77  H    0.144197
    78  H    0.113280
    79  H    0.137802
    80  H    0.165825
    81  H    0.163005
    82  H    0.159701
    83  H    0.133080
    84  H    0.141964
    85  H    0.112363
    86  H    0.140268
    87  H    0.172199
    88  H    0.196362
    89  H    0.194262
    90  H    0.120185
    91  H    0.154603
    92  H    0.128230
    93  H    0.120797
    94  H    0.252040
    95  H    0.188982
    96  H    0.192015
    97  H    0.247721
    98  H    0.158907
    99  H    0.150964
   100  H    0.137508
   101  H    0.117148
   102  H    0.253113
   103  H    0.146785
   104  H    0.147720
   105  H    0.131205
   106  H    0.195709
   107  H    0.210518
   108  H    0.145585
   109  H    0.149973
   110  H    0.119914
   111  H    0.125363
   112  H    0.265670
   113  H    0.202874
   114  H    0.170673
   115  H    0.216590
   116  H    0.155900
   117  H    0.139834
   118  H    0.127516
   119  H    0.125351
   120  H    0.248764
   121  H    0.165823
   122  H    0.162020
   123  H    0.132813
   124  H    0.160282
   125  H    0.175186
   126  H    0.173665
   127  H    0.173906
   128  H    0.179398
   129  H    0.150031
   130  H    0.152381
 Sum of Mulliken charges =  -0.00000
 Mulliken charges with hydrogens summed into heavy atoms:
               1
     1  C    0.198852
     2  O   -0.299695
     3  C    0.228670
     4  C   -0.031534
     5  C    0.017939
     6  C   -0.015558
     7  C    0.061900
     8  C    0.003076
     9  C    0.020419
    10  C    0.073761
    11  C   -0.023377
    12  C    0.021220
    13  C    0.096917
    14  N   -0.104627
    15  B    0.346824
    16  F   -0.336307
    17  F   -0.367985
    18  N   -0.104558
    19  C    0.021179
    20  C    0.039194
    21  C    0.010883
    22  C   -0.016764
    23  C    0.105388
    24  C   -0.025601
    25  N   -0.265822
    26  C    0.122835
    27  C    0.294548
    28  O   -0.471246
    29  N   -0.014723
    30  C    0.136084
    31  C    0.186303
    32  O   -0.171750
    33  C    0.074094
    34  C    0.326180
    35  O   -0.474630
    36  N    0.023644
    37  C    0.110766
    38  C    0.215574
    39  O   -0.169192
    40  C    0.072063
    41  C   -0.000973
    42  C   -0.016742
    43  N   -0.197079
    44  C    0.149123
    45  C    0.306639
    46  O   -0.508094
    47  N    0.039111
    48  C    0.108031
    49  C    0.202454
    50  O   -0.194444
    51  C   -0.032910
    52  C    0.500158
    53  O   -0.507695
    54  N   -0.039338
    55  C    0.132440
    56  C    0.223712
    57  O   -0.182518
    58  C    0.074660
    59  C   -0.020579
    60  C    0.019358
    61  C    0.092809
    62  C    0.157990
    63  C   -0.252274
    64  C    0.025191
    65  C    0.098745
    66  C    0.108223
    67  C    0.105004
    68  C    0.006244
    69  C   -0.197291
    70  N   -0.072673
    71  C   -0.028851
    72  C   -0.013381
 Electronic spatial extent (au):  <R**2>=         106352.9341
 Charge=              0.0000 electrons
 Dipole moment (field-independent basis, Debye):
    X=              7.0115    Y=              9.1398    Z=              9.5843  Tot=             14.9852
 Quadrupole moment (field-independent basis, Debye-Ang):
   XX=           -572.1209   YY=           -412.8150   ZZ=           -422.7122
   XY=             12.5929   XZ=            -36.9154   YZ=            -12.8404
 Traceless Quadrupole moment (field-independent basis, Debye-Ang):
   XX=           -102.9049   YY=             56.4010   ZZ=             46.5039
   XY=             12.5929   XZ=            -36.9154   YZ=            -12.8404
 Octapole moment (field-independent basis, Debye-Ang**2):
  XXX=           1077.9368  YYY=            681.9205  ZZZ=             77.5765  XYY=           -634.5293
  XXY=            794.6843  XXZ=            349.5689  XZZ=            -56.4235  YZZ=            -60.8027
  YYZ=            220.8258  XYZ=             64.2531
 Hexadecapole moment (field-independent basis, Debye-Ang**3):
 XXXX=        -123932.4829 YYYY=         -42987.6008 ZZZZ=          -3641.1948 XXXY=           8481.1832
 XXXZ=           -334.2502 YYYX=           5691.3299 YYYZ=           -271.4658 ZZZX=           -765.3091
 ZZZY=           -456.2533 XXYY=         -29305.5611 XXZZ=         -17478.3828 YYZZ=          -6757.4525
 XXYZ=          -2093.5493 YYXZ=            131.5614 ZZXY=            -43.2093
 N-N= 1.090282739281D+04 E-N=-2.967243913786D+04  KE= 3.354783899792D+03
 Leave Link  601 at Fri Nov  7 13:18:29 2025, MaxMem= 30870077440 cpu:             137.9 elap:               2.8
 (Enter /public/software/gauss/g16/l9999.exe)
 1\1\GINC-CU015\SP\RM062X\def2TZVPP\C51H58B1F2N9O9\BAIDING\07-Nov-2025\
 0\\#p M062X/DEF2TZVPP scrf=(solvent=water) em=GD3\\Energy calculation 
 for M100035858\\0,1\C,0,-3.748757,9.412909,-1.369775\O,0,-5.126127,9.0
 89106,-1.147322\C,0,-5.46317,7.776007,-0.97789\C,0,-6.827101,7.514799,
 -0.772753\C,0,-7.262872,6.211157,-0.595661\C,0,-6.364078,5.121346,-0.6
 15639\C,0,-6.888639,3.776575,-0.428825\C,0,-6.178871,2.619012,-0.41066
 7\C,0,-6.782701,1.323706,-0.234963\C,0,-8.159513,0.982795,-0.201937\C,
 0,-8.276121,-0.38422,-0.022744\C,0,-9.580558,-1.118637,0.050481\C,0,-6
 .934218,-0.89675,0.055051\N,0,-6.053359,0.179796,-0.083747\B,0,-4.5200
 79,0.089491,0.12222\F,0,-4.159209,0.652208,1.355495\F,0,-3.853067,0.77
 9647,-0.906007\N,0,-4.145338,-1.41371,0.085749\C,0,-2.882605,-1.933133
 ,0.112582\C,0,-1.700406,-1.119877,-0.013047\C,0,-0.441593,-1.599088,0.
 156814\C,0,0.797145,-0.845457,0.026475\C,0,2.013109,-1.493026,0.312024
 \C,0,3.266969,-0.878408,0.225746\N,0,4.449376,-1.620121,0.588131\C,0,5
 .181478,-1.039947,1.732811\C,0,6.666246,-1.399037,1.818177\O,0,7.28990
 2,-1.154767,2.865187\N,0,7.23345,-1.964581,0.739199\C,0,8.649023,-2.30
 3135,0.656706\C,0,8.893232,-3.188639,-0.558781\O,0,10.284446,-3.502532
 ,-0.574111\C,0,4.260611,-3.060958,0.804803\C,0,3.986437,-3.91249,-0.43
 0328\O,0,3.461249,-5.029088,-0.288914\N,0,4.384917,-3.415827,-1.617522
 \C,0,4.443108,-4.220801,-2.830147\C,0,5.818057,-4.848346,-3.057246\O,0
 ,6.270216,-5.628034,-1.950175\C,0,3.324502,0.478038,-0.243109\C,0,2.09
 4623,1.128818,-0.476077\C,0,0.864887,0.503702,-0.349025\N,0,4.538346,1
 .19258,-0.436146\C,0,5.577842,0.602982,-1.279385\C,0,7.023853,0.815889
 ,-0.821122\O,0,7.918813,0.332631,-1.551709\N,0,7.234225,1.507266,0.304
 873\C,0,8.509124,1.717113,1.010839\C,0,9.718603,2.076971,0.15129\O,0,1
 0.30356,0.964954,-0.518409\C,0,4.467147,2.649572,-0.545689\C,0,4.32669
 2,3.304355,0.828566\O,0,4.979802,2.875564,1.798929\N,0,3.516407,4.3727
 12,0.900327\C,0,3.393474,5.207973,2.093559\C,0,4.400365,6.355199,2.128
 002\O,0,4.198752,7.302823,1.078101\C,0,-2.981952,-3.339771,0.260254\C,
 0,-4.320283,-3.687121,0.330693\C,0,-4.822034,-5.092211,0.474445\C,0,-5
 .061263,-2.459886,0.222547\C,0,-6.443422,-2.202909,0.213368\C,0,-7.404
 22,-3.338746,0.360471\C,0,-7.837845,-3.736329,1.633264\C,0,-8.730668,-
 4.793357,1.777051\C,0,-9.198325,-5.464782,0.634963\C,0,-8.769412,-5.07
 3338,-0.644369\C,0,-7.876634,-4.014652,-0.773699\C,0,-10.11639,-6.5533
 99,0.775196\N,0,-10.864419,-7.440663,0.889079\C,0,-4.999698,5.409444,-
 0.819967\C,0,-4.546984,6.712344,-0.999018\H,0,-3.372506,8.939853,-2.28
 2901\H,0,-3.714251,10.497047,-1.481775\H,0,-3.128276,9.114346,-0.51823
 6\H,0,-7.524401,8.346271,-0.757524\H,0,-8.320837,6.019875,-0.438429\H,
 0,-7.966973,3.726786,-0.289087\H,0,-5.103169,2.636436,-0.542173\H,0,-8
 .980016,1.677082,-0.318688\H,0,-9.687388,-1.847717,-0.758573\H,0,-9.69
 1106,-1.666486,0.99112\H,0,-10.405707,-0.405801,-0.025737\H,0,-1.85696
 6,-0.07712,-0.263911\H,0,-0.313657,-2.646806,0.422007\H,0,1.94537,-2.5
 23397,0.63527\H,0,5.116852,0.048572,1.689234\H,0,4.73191,-1.345067,2.6
 88433\H,0,6.67153,-2.037638,-0.09965\H,0,9.262868,-1.399014,0.572252\H
 ,0,8.945722,-2.827735,1.56973\H,0,8.277543,-4.096571,-0.496949\H,0,8.5
 99758,-2.645628,-1.4695\H,0,10.444845,-4.052718,-1.35356\H,0,5.19584,-
 3.454751,1.211803\H,0,3.492232,-3.291955,1.552618\H,0,4.876248,-2.5312
 59,-1.603244\H,0,3.682392,-5.000087,-2.745585\H,0,4.189518,-3.595006,-
 3.690996\H,0,5.777939,-5.445639,-3.979322\H,0,6.570448,-4.065421,-3.19
 7948\H,0,5.587062,-6.286845,-1.756077\H,0,2.089833,2.160635,-0.797101\
 H,0,-0.034233,1.068603,-0.571118\H,0,5.434355,-0.474394,-1.334192\H,0,
 5.520694,0.981295,-2.309864\H,0,6.408134,1.806263,0.826218\H,0,8.32150
 8,2.540754,1.704897\H,0,8.746225,0.831993,1.612062\H,0,9.447786,2.8757
 68,-0.555212\H,0,10.483383,2.479286,0.823379\H,0,9.562947,0.590036,-1.
 046466\H,0,5.423437,3.002492,-0.940815\H,0,3.711131,3.007418,-1.252471
 \H,0,3.042023,4.669665,0.057011\H,0,2.376761,5.607883,2.118798\H,0,3.5
 35224,4.573714,2.971608\H,0,4.273025,6.900486,3.068384\H,0,5.42191,5.9
 5332,2.10388\H,0,4.460747,6.876517,0.249295\H,0,-2.148509,-4.027907,0.
 29076\H,0,-5.441797,-5.395899,-0.374754\H,0,-3.973494,-5.77847,0.53635
 1\H,0,-5.429202,-5.221272,1.375511\H,0,-7.474378,-3.215924,2.513019\H,
 0,-9.066067,-5.100709,2.761434\H,0,-9.134496,-5.596063,-1.521523\H,0,-
 7.543356,-3.709806,-1.760076\H,0,-4.27266,4.603874,-0.841798\H,0,-3.49
 0189,6.891733,-1.154427\\Version=ES64L-G16RevA.03\State=1-A\HF=-3372.9
 281954\RMSD=2.797e-09\Dipole=-2.7585435,3.5958721,-3.7707622\Quadrupol
 e=-76.5072552,41.9327795,34.5744757,-9.3624969,-27.4457042,9.5465517\P
 G=C01 [X(C51H58B1F2N9O9)]\\@


 DEFINE YOUR TERMS, YOU WILL PERMIT ME AGAIN TO SAY, 
 OR WE SHALL NEVER UNDERSTAND ONE ANOTHER.

                                    -- VOLTAIRE
 Job cpu time:       1 days 23 hours 43 minutes  0.7 seconds.
 Elapsed time:       0 days  0 hours 45 minutes 34.5 seconds.
 File lengths (MBytes):  RWF=   6021 Int=      0 D2E=      0 Chk=    535 Scr=      1
 Normal termination of Gaussian 16 at Fri Nov  7 13:18:31 2025.
