 Entering Gaussian System, Link 0=g16
 Input=M100033022_reduced_sp.gjf
 Output=M100033022_reduced_sp.log
 Initial command:
 /public/software/gauss/g16/l1.exe "/public/home/baiding/1101_v2_sp/tmp_M100033022_reduced_sp_1568608/Gau-4136227.inp" -scrdir="/public/home/baiding/1101_v2_sp/tmp_M100033022_reduced_sp_1568608/"
 Entering Link 1 = /public/software/gauss/g16/l1.exe PID=   4136228.
  
 Copyright (c) 1988,1990,1992,1993,1995,1998,2003,2009,2016,
            Gaussian, Inc.  All Rights Reserved.
  
 This is part of the Gaussian(R) 16 program.  It is based on
 the Gaussian(R) 09 system (copyright 2009, Gaussian, Inc.),
 the Gaussian(R) 03 system (copyright 2003, Gaussian, Inc.),
 the Gaussian(R) 98 system (copyright 1998, Gaussian, Inc.),
 the Gaussian(R) 94 system (copyright 1995, Gaussian, Inc.),
 the Gaussian 92(TM) system (copyright 1992, Gaussian, Inc.),
 the Gaussian 90(TM) system (copyright 1990, Gaussian, Inc.),
 the Gaussian 88(TM) system (copyright 1988, Gaussian, Inc.),
 the Gaussian 86(TM) system (copyright 1986, Carnegie Mellon
 University), and the Gaussian 82(TM) system (copyright 1983,
 Carnegie Mellon University). Gaussian is a federally registered
 trademark of Gaussian, Inc.
  
 This software contains proprietary and confidential information,
 including trade secrets, belonging to Gaussian, Inc.
  
 This software is provided under written license and may be
 used, copied, transmitted, or stored only in accord with that
 written license.
  
 The following legend is applicable only to US Government
 contracts under FAR:
  
                    RESTRICTED RIGHTS LEGEND
  
 Use, reproduction and disclosure by the US Government is
 subject to restrictions as set forth in subparagraphs (a)
 and (c) of the Commercial Computer Software - Restricted
 Rights clause in FAR 52.227-19.
  
 Gaussian, Inc.
 340 Quinnipiac St., Bldg. 40, Wallingford CT 06492
  
  
 ---------------------------------------------------------------
 Warning -- This program may not be used in any manner that
 competes with the business of Gaussian, Inc. or will provide
 assistance to any competitor of Gaussian, Inc.  The licensee
 of this program is prohibited from giving any competitor of
 Gaussian, Inc. access to this program.  By using this program,
 the user acknowledges that Gaussian, Inc. is engaged in the
 business of creating and licensing software in the field of
 computational chemistry and represents and warrants to the
 licensee that it is not a competitor of Gaussian, Inc. and that
 it will not use this program in any manner prohibited above.
 ---------------------------------------------------------------
  

 Cite this work as:
 Gaussian 16, Revision A.03,
 M. J. Frisch, G. W. Trucks, H. B. Schlegel, G. E. Scuseria, 
 M. A. Robb, J. R. Cheeseman, G. Scalmani, V. Barone, 
 G. A. Petersson, H. Nakatsuji, X. Li, M. Caricato, A. V. Marenich, 
 J. Bloino, B. G. Janesko, R. Gomperts, B. Mennucci, H. P. Hratchian, 
 J. V. Ortiz, A. F. Izmaylov, J. L. Sonnenberg, D. Williams-Young, 
 F. Ding, F. Lipparini, F. Egidi, J. Goings, B. Peng, A. Petrone, 
 T. Henderson, D. Ranasinghe, V. G. Zakrzewski, J. Gao, N. Rega, 
 G. Zheng, W. Liang, M. Hada, M. Ehara, K. Toyota, R. Fukuda, 
 J. Hasegawa, M. Ishida, T. Nakajima, Y. Honda, O. Kitao, H. Nakai, 
 T. Vreven, K. Throssell, J. A. Montgomery, Jr., J. E. Peralta, 
 F. Ogliaro, M. J. Bearpark, J. J. Heyd, E. N. Brothers, K. N. Kudin, 
 V. N. Staroverov, T. A. Keith, R. Kobayashi, J. Normand, 
 K. Raghavachari, A. P. Rendell, J. C. Burant, S. S. Iyengar, 
 J. Tomasi, M. Cossi, J. M. Millam, M. Klene, C. Adamo, R. Cammi, 
 J. W. Ochterski, R. L. Martin, K. Morokuma, O. Farkas, 
 J. B. Foresman, and D. J. Fox, Gaussian, Inc., Wallingford CT, 2016.
 
 ******************************************
 Gaussian 16:  ES64L-G16RevA.03 25-Dec-2016
                 6-Nov-2025 
 ******************************************
 %nprocshared=64
 Will use up to   64 processors via shared memory.
 %mem=230GB
 %chk=M100033022_reduced_sp.chk
 ----------------------------------------------
 #p M062X/DEF2TZVPP scrf=(solvent=water) em=GD3
 ----------------------------------------------
 1/38=1,172=1/1;
 2/12=2,17=6,18=5,40=1/2;
 3/5=44,7=202,11=2,25=1,30=1,70=2201,72=1,74=-55,124=31/1,2,3;
 4//1;
 5/5=2,38=5,53=1/2;
 6/7=2,8=2,9=2,10=2,28=1/1;
 99/5=1,9=1/99;
 Leave Link    1 at Thu Nov  6 08:00:03 2025, MaxMem= 30870077440 cpu:              12.9 elap:               0.2
 (Enter /public/software/gauss/g16/l101.exe)
 -----------------------------------------
 Energy calculation for M100033022_reduced
 -----------------------------------------
 Symbolic Z-matrix:
 Charge = -1 Multiplicity = 2
 C                     5.13755  -4.12863   1.42401 
 C                     4.46104  -4.69765   0.16684 
 C                     3.27196  -3.90785  -0.30438 
 C                     3.13293  -3.19257  -1.46601 
 C                     1.86322  -2.5594   -1.61214 
 C                     1.00779  -2.78498  -0.56217 
 C                    -0.36247  -2.31169  -0.34608 
 C                    -1.50479  -3.07805  -0.17385 
 C                    -1.59051  -4.57346  -0.22947 
 C                    -2.59004  -2.16743   0.04956 
 C                    -3.92159  -2.53396   0.43083 
 O                    -4.36326  -3.70125   0.48137 
 C                    -2.04583  -0.83918  -0.03954 
 C                    -2.64114   0.44621   0.07387 
 C                    -4.11588   0.64461   0.08529 
 C                    -4.76158   1.24231   1.18102 
 C                    -6.14215   1.4527    1.17017 
 C                    -6.90244   1.07444   0.06172 
 C                    -6.27212   0.48534  -1.03826 
 C                    -4.89398   0.27404  -1.02719 
 C                    -1.81295   1.59822   0.09249 
 C                    -2.17675   2.96195   0.12915 
 C                    -1.00909   3.72733   0.06814 
 C                    -0.94986   5.22634   0.11839 
 C                     0.07399   2.81852  -0.01302 
 C                     1.47528   3.19141  -0.12004 
 C                     1.96173   4.29269  -0.79966 
 C                     3.35739   4.51182  -0.63598 
 C                     3.96985   3.59072   0.17475 
 C                     5.42852   3.48517   0.52419 
 C                     6.15736   2.32242  -0.1697 
 S                     2.80763   2.4138    0.74655 
 N                    -0.42855   1.52308   0.01727 
 B                     0.33932   0.20893  -0.2371 
 F                     1.03081   0.29918  -1.45952 
 F                     1.25891  -0.04072   0.8018 
 N                    -0.69003  -0.95522  -0.26535 
 S                     1.80304  -3.79546   0.64326 
 H                     4.45611  -4.13158   2.2811 
 H                     6.01291  -4.72931   1.69138 
 H                     5.4675   -3.09791   1.25929 
 H                     5.18198  -4.72283  -0.65771 
 H                     4.16807  -5.73801   0.35659 
 H                     3.92315  -3.13012  -2.20726 
 H                     1.58896  -1.94793  -2.46228 
 H                    -2.34967  -4.90027  -0.94714 
 H                    -0.63364  -5.01041  -0.52385 
 H                    -1.87415  -5.00248   0.73851 
 H                    -4.58584  -1.7085    0.72875 
 H                    -4.17707   1.53288   2.04868 
 H                    -6.62282   1.90961   2.03043 
 H                    -7.97589   1.23854   0.05339 
 H                    -6.85393   0.19516  -1.90844 
 H                    -4.40941  -0.18196  -1.88552 
 H                    -3.18572   3.34204   0.2022 
 H                    -0.89677   5.67564  -0.88106 
 H                    -1.84646   5.62474   0.60313 
 H                    -0.07556   5.58147   0.67288 
 H                     1.33037   4.91783  -1.41925 
 H                     3.89796   5.3222   -1.11434 
 H                     5.9018    4.43203   0.24169 
 H                     5.55057   3.38771   1.61012 
 H                     6.08402   2.40867  -1.25856 
 H                     7.21799   2.3197    0.10214 
 H                     5.73408   1.35566   0.12127 
 
 ITRead=  0  0  0  0  0  0  0  0  0  0  0  0  0  0  0  0  0  0  0  0
 ITRead=  0  0  0  0  0  0  0  0  0  0  0  0  0  0  0  0  0  0  0  0
 ITRead=  0  0  0  0  0  0  0  0  0  0  0  0  0  0  0  0  0  0  0  0
 ITRead=  0  0  0  0  0
 MicOpt= -1 -1 -1 -1 -1 -1 -1 -1 -1 -1 -1 -1 -1 -1 -1 -1 -1 -1 -1 -1
 MicOpt= -1 -1 -1 -1 -1 -1 -1 -1 -1 -1 -1 -1 -1 -1 -1 -1 -1 -1 -1 -1
 MicOpt= -1 -1 -1 -1 -1 -1 -1 -1 -1 -1 -1 -1 -1 -1 -1 -1 -1 -1 -1 -1
 MicOpt= -1 -1 -1 -1 -1
 NAtoms=     65 NQM=       65 NQMF=       0 NMMI=      0 NMMIF=      0
                NMic=       0 NMicF=      0.
                    Isotopes and Nuclear Properties:
 (Nuclear quadrupole moments (NQMom) in fm**2, nuclear magnetic moments (NMagM)
  in nuclear magnetons)

  Atom         1           2           3           4           5           6           7           8           9          10
 IAtWgt=          12          12          12          12          12          12          12          12          12          12
 AtmWgt=  12.0000000  12.0000000  12.0000000  12.0000000  12.0000000  12.0000000  12.0000000  12.0000000  12.0000000  12.0000000
 NucSpn=           0           0           0           0           0           0           0           0           0           0
 AtZEff=  -0.0000000  -0.0000000  -0.0000000  -0.0000000  -0.0000000  -0.0000000  -0.0000000  -0.0000000  -0.0000000  -0.0000000
 NQMom=    0.0000000   0.0000000   0.0000000   0.0000000   0.0000000   0.0000000   0.0000000   0.0000000   0.0000000   0.0000000
 NMagM=    0.0000000   0.0000000   0.0000000   0.0000000   0.0000000   0.0000000   0.0000000   0.0000000   0.0000000   0.0000000
 AtZNuc=   6.0000000   6.0000000   6.0000000   6.0000000   6.0000000   6.0000000   6.0000000   6.0000000   6.0000000   6.0000000

  Atom        11          12          13          14          15          16          17          18          19          20
 IAtWgt=          12          16          12          12          12          12          12          12          12          12
 AtmWgt=  12.0000000  15.9949146  12.0000000  12.0000000  12.0000000  12.0000000  12.0000000  12.0000000  12.0000000  12.0000000
 NucSpn=           0           0           0           0           0           0           0           0           0           0
 AtZEff=  -0.0000000  -0.0000000  -0.0000000  -0.0000000  -0.0000000  -0.0000000  -0.0000000  -0.0000000  -0.0000000  -0.0000000
 NQMom=    0.0000000   0.0000000   0.0000000   0.0000000   0.0000000   0.0000000   0.0000000   0.0000000   0.0000000   0.0000000
 NMagM=    0.0000000   0.0000000   0.0000000   0.0000000   0.0000000   0.0000000   0.0000000   0.0000000   0.0000000   0.0000000
 AtZNuc=   6.0000000   8.0000000   6.0000000   6.0000000   6.0000000   6.0000000   6.0000000   6.0000000   6.0000000   6.0000000

  Atom        21          22          23          24          25          26          27          28          29          30
 IAtWgt=          12          12          12          12          12          12          12          12          12          12
 AtmWgt=  12.0000000  12.0000000  12.0000000  12.0000000  12.0000000  12.0000000  12.0000000  12.0000000  12.0000000  12.0000000
 NucSpn=           0           0           0           0           0           0           0           0           0           0
 AtZEff=  -0.0000000  -0.0000000  -0.0000000  -0.0000000  -0.0000000  -0.0000000  -0.0000000  -0.0000000  -0.0000000  -0.0000000
 NQMom=    0.0000000   0.0000000   0.0000000   0.0000000   0.0000000   0.0000000   0.0000000   0.0000000   0.0000000   0.0000000
 NMagM=    0.0000000   0.0000000   0.0000000   0.0000000   0.0000000   0.0000000   0.0000000   0.0000000   0.0000000   0.0000000
 AtZNuc=   6.0000000   6.0000000   6.0000000   6.0000000   6.0000000   6.0000000   6.0000000   6.0000000   6.0000000   6.0000000

  Atom        31          32          33          34          35          36          37          38          39          40
 IAtWgt=          12          32          14          11          19          19          14          32           1           1
 AtmWgt=  12.0000000  31.9720718  14.0030740  11.0093053  18.9984033  18.9984033  14.0030740  31.9720718   1.0078250   1.0078250
 NucSpn=           0           0           2           3           1           1           2           0           1           1
 AtZEff=  -0.0000000  -0.0000000  -0.0000000  -0.0000000  -0.0000000  -0.0000000  -0.0000000  -0.0000000  -0.0000000  -0.0000000
 NQMom=    0.0000000   0.0000000   2.0440000   4.0590000   0.0000000   0.0000000   2.0440000   0.0000000   0.0000000   0.0000000
 NMagM=    0.0000000   0.0000000   0.4037610   2.6886370   2.6288670   2.6288670   0.4037610   0.0000000   2.7928460   2.7928460
 AtZNuc=   6.0000000  16.0000000   7.0000000   5.0000000   9.0000000   9.0000000   7.0000000  16.0000000   1.0000000   1.0000000

  Atom        41          42          43          44          45          46          47          48          49          50
 IAtWgt=           1           1           1           1           1           1           1           1           1           1
 AtmWgt=   1.0078250   1.0078250   1.0078250   1.0078250   1.0078250   1.0078250   1.0078250   1.0078250   1.0078250   1.0078250
 NucSpn=           1           1           1           1           1           1           1           1           1           1
 AtZEff=  -0.0000000  -0.0000000  -0.0000000  -0.0000000  -0.0000000  -0.0000000  -0.0000000  -0.0000000  -0.0000000  -0.0000000
 NQMom=    0.0000000   0.0000000   0.0000000   0.0000000   0.0000000   0.0000000   0.0000000   0.0000000   0.0000000   0.0000000
 NMagM=    2.7928460   2.7928460   2.7928460   2.7928460   2.7928460   2.7928460   2.7928460   2.7928460   2.7928460   2.7928460
 AtZNuc=   1.0000000   1.0000000   1.0000000   1.0000000   1.0000000   1.0000000   1.0000000   1.0000000   1.0000000   1.0000000

  Atom        51          52          53          54          55          56          57          58          59          60
 IAtWgt=           1           1           1           1           1           1           1           1           1           1
 AtmWgt=   1.0078250   1.0078250   1.0078250   1.0078250   1.0078250   1.0078250   1.0078250   1.0078250   1.0078250   1.0078250
 NucSpn=           1           1           1           1           1           1           1           1           1           1
 AtZEff=  -0.0000000  -0.0000000  -0.0000000  -0.0000000  -0.0000000  -0.0000000  -0.0000000  -0.0000000  -0.0000000  -0.0000000
 NQMom=    0.0000000   0.0000000   0.0000000   0.0000000   0.0000000   0.0000000   0.0000000   0.0000000   0.0000000   0.0000000
 NMagM=    2.7928460   2.7928460   2.7928460   2.7928460   2.7928460   2.7928460   2.7928460   2.7928460   2.7928460   2.7928460
 AtZNuc=   1.0000000   1.0000000   1.0000000   1.0000000   1.0000000   1.0000000   1.0000000   1.0000000   1.0000000   1.0000000

  Atom        61          62          63          64          65
 IAtWgt=           1           1           1           1           1
 AtmWgt=   1.0078250   1.0078250   1.0078250   1.0078250   1.0078250
 NucSpn=           1           1           1           1           1
 AtZEff=  -0.0000000  -0.0000000  -0.0000000  -0.0000000  -0.0000000
 NQMom=    0.0000000   0.0000000   0.0000000   0.0000000   0.0000000
 NMagM=    2.7928460   2.7928460   2.7928460   2.7928460   2.7928460
 AtZNuc=   1.0000000   1.0000000   1.0000000   1.0000000   1.0000000
 Leave Link  101 at Thu Nov  6 08:00:03 2025, MaxMem= 30870077440 cpu:               3.8 elap:               0.1
 (Enter /public/software/gauss/g16/l202.exe)
 Stoichiometry    C30H27BF2N2OS2(1-,2)
 Framework group  C1[X(C30H27BF2N2OS2)]
 Deg. of freedom   189
 Full point group                 C1      NOp   1
 Largest Abelian subgroup         C1      NOp   1
 Largest concise Abelian subgroup C1      NOp   1
                         Standard orientation:                         
 ---------------------------------------------------------------------
 Center     Atomic      Atomic             Coordinates (Angstroms)
 Number     Number       Type             X           Y           Z
 ---------------------------------------------------------------------
      1          6           0        5.137553    4.128629   -1.424005
      2          6           0        4.461042    4.697652   -0.166842
      3          6           0        3.271955    3.907850    0.304380
      4          6           0        3.132932    3.192571    1.466010
      5          6           0        1.863215    2.559398    1.612136
      6          6           0        1.007790    2.784980    0.562174
      7          6           0       -0.362467    2.311689    0.346084
      8          6           0       -1.504787    3.078053    0.173852
      9          6           0       -1.590510    4.573464    0.229466
     10          6           0       -2.590035    2.167432   -0.049559
     11          6           0       -3.921593    2.533958   -0.430833
     12          8           0       -4.363263    3.701245   -0.481370
     13          6           0       -2.045834    0.839178    0.039541
     14          6           0       -2.641141   -0.446212   -0.073867
     15          6           0       -4.115876   -0.644609   -0.085285
     16          6           0       -4.761580   -1.242306   -1.181019
     17          6           0       -6.142146   -1.452696   -1.170168
     18          6           0       -6.902440   -1.074436   -0.061722
     19          6           0       -6.272116   -0.485342    1.038259
     20          6           0       -4.893980   -0.274036    1.027189
     21          6           0       -1.812949   -1.598221   -0.092490
     22          6           0       -2.176749   -2.961945   -0.129148
     23          6           0       -1.009089   -3.727333   -0.068139
     24          6           0       -0.949859   -5.226338   -0.118391
     25          6           0        0.073990   -2.818523    0.013020
     26          6           0        1.475277   -3.191410    0.120039
     27          6           0        1.961726   -4.292686    0.799655
     28          6           0        3.357393   -4.511818    0.635984
     29          6           0        3.969848   -3.590715   -0.174745
     30          6           0        5.428521   -3.485165   -0.524188
     31          6           0        6.157357   -2.322420    0.169703
     32         16           0        2.807633   -2.413800   -0.746545
     33          7           0       -0.428545   -1.523083   -0.017272
     34          5           0        0.339316   -0.208932    0.237100
     35          9           0        1.030814   -0.299176    1.459519
     36          9           0        1.258909    0.040724   -0.801803
     37          7           0       -0.690029    0.955217    0.265353
     38         16           0        1.803044    3.795457   -0.643264
     39          1           0        4.456106    4.131577   -2.281100
     40          1           0        6.012910    4.729310   -1.691378
     41          1           0        5.467498    3.097912   -1.259293
     42          1           0        5.181983    4.722833    0.657710
     43          1           0        4.168075    5.738010   -0.356589
     44          1           0        3.923147    3.130124    2.207263
     45          1           0        1.588960    1.947929    2.462282
     46          1           0       -2.349671    4.900270    0.947138
     47          1           0       -0.633637    5.010408    0.523854
     48          1           0       -1.874149    5.002483   -0.738514
     49          1           0       -4.585845    1.708504   -0.728752
     50          1           0       -4.177068   -1.532875   -2.048681
     51          1           0       -6.622820   -1.909613   -2.030425
     52          1           0       -7.975894   -1.238535   -0.053387
     53          1           0       -6.853930   -0.195161    1.908436
     54          1           0       -4.409414    0.181964    1.885515
     55          1           0       -3.185722   -3.342035   -0.202196
     56          1           0       -0.896770   -5.675637    0.881058
     57          1           0       -1.846457   -5.624740   -0.603127
     58          1           0       -0.075563   -5.581471   -0.672877
     59          1           0        1.330365   -4.917826    1.419246
     60          1           0        3.897961   -5.322204    1.114342
     61          1           0        5.901797   -4.432032   -0.241690
     62          1           0        5.550571   -3.387710   -1.610123
     63          1           0        6.084019   -2.408667    1.258564
     64          1           0        7.217991   -2.319703   -0.102143
     65          1           0        5.734083   -1.355659   -0.121269
 ---------------------------------------------------------------------
 Rotational constants (GHZ):           0.1033378           0.0775395           0.0468013
 Leave Link  202 at Thu Nov  6 08:00:03 2025, MaxMem= 30870077440 cpu:               0.2 elap:               0.0
 (Enter /public/software/gauss/g16/l301.exe)
 Standard basis: def2TZVPP (5D, 7F)
 Ernie: Thresh=  0.10000D-02 Tol=  0.10000D-05 Strict=F.
 There are  1797 symmetry adapted cartesian basis functions of A   symmetry.
 There are  1578 symmetry adapted basis functions of A   symmetry.
  1578 basis functions,  2433 primitive gaussians,  1797 cartesian basis functions
   143 alpha electrons      142 beta electrons
       nuclear repulsion energy      4545.2695293702 Hartrees.
 IExCor= 4336 DFT=T Ex+Corr=M062X ExCW=0 ScaHFX=  0.540000
 ScaDFX=  1.000000  1.000000  1.000000  1.000000 ScalE2=  1.000000  1.000000
 IRadAn=      5 IRanWt=     -1 IRanGd=            0 ICorTp=0 IEmpDi=131
 NAtoms=   65 NActive=   65 NUniq=   65 SFac= 1.00D+00 NAtFMM=   60 NAOKFM=T Big=T
 Integral buffers will be    131072 words long.
 Raffenetti 2 integral format.
 Two-electron integral symmetry is turned on.
 R6Disp:  Grimme-D3 Dispersion energy=       -0.0056300703 Hartrees.
 Nuclear repulsion after empirical dispersion term =     4545.2638992999 Hartrees.
 ------------------------------------------------------------------------------
 Polarizable Continuum Model (PCM)
 =================================
 Model                : PCM.
 Atomic radii         : UFF (Universal Force Field).
 Polarization charges : Total charges.
 Charge compensation  : None.
 Solution method      : On-the-fly selection.
 Cavity type          : Scaled VdW (van der Waals Surface) (Alpha=1.100).
 Cavity algorithm     : GePol (No added spheres)
                        Default sphere list used, NSphG=   65.
                        Lebedev-Laikov grids with approx.  5.0 points / Ang**2.
                        Smoothing algorithm: York/Karplus (Gamma=1.0000).
                        Polarization charges: spherical gaussians, with
                                              point-specific exponents (IZeta= 3).
                        Self-potential: point-specific (ISelfS= 7).
                        Self-field    : sphere-specific E.n sum rule (ISelfD= 2).
 Solvent              : Water, Eps=  78.355300 Eps(inf)=   1.777849
 ------------------------------------------------------------------------------
 GePol: Number of generator spheres                  =      65
 GePol: Total number of spheres                      =      65
 GePol: Number of exposed spheres                    =      65 (100.00%)
 GePol: Number of points                             =    4836
 GePol: Average weight of points                     =       0.13
 GePol: Minimum weight of points                     =   0.22D-10
 GePol: Maximum weight of points                     =    0.20577
 GePol: Number of points with low weight             =     281
 GePol: Fraction of low-weight points (<1% of avg)   =       5.81%
 GePol: Cavity surface area                          =    615.627 Ang**2
 GePol: Cavity volume                                =    708.711 Ang**3
 Leave Link  301 at Thu Nov  6 08:00:03 2025, MaxMem= 30870077440 cpu:               3.7 elap:               0.1
 (Enter /public/software/gauss/g16/l302.exe)
 NPDir=0 NMtPBC=     1 NCelOv=     1 NCel=       1 NClECP=     1 NCelD=      1
         NCelK=      1 NCelE2=     1 NClLst=     1 CellRange=     0.0.
 One-electron integrals computed using PRISM.
 One-electron integral symmetry used in STVInt
   1 Symmetry operations used in ECPInt.
 ECPInt:  NShTT=  171991 NPrTT=  491488 LenC2=  123182 LenP2D=  239824.
 LDataN:  DoStor=T MaxTD1= 6 Len=  172
 NBasis=  1578 RedAO= T EigKep=  5.09D-06  NBF=  1578
 NBsUse=  1578 1.00D-06 EigRej= -1.00D+00 NBFU=  1578
 Precomputing XC quadrature grid using
 IXCGrd= 4 IRadAn=           5 IRanWt=          -1 IRanGd=           0 AccXCQ= 0.00D+00.
 Generated NRdTot=       0 NPtTot=           0 NUsed=           0 NTot=          32
 NSgBfM=  1708  1703  1703  1705  1708 MxSgAt=    65 MxSgA2=    65.
 Leave Link  302 at Thu Nov  6 08:00:10 2025, MaxMem= 30870077440 cpu:             422.1 elap:               6.6
 (Enter /public/software/gauss/g16/l303.exe)
 DipDrv:  MaxL=1.
 Leave Link  303 at Thu Nov  6 08:00:10 2025, MaxMem= 30870077440 cpu:              22.0 elap:               0.4
 (Enter /public/software/gauss/g16/l401.exe)
 ExpMin= 6.06D-02 ExpMax= 6.07D+04 ExpMxC= 2.07D+03 IAcc=3 IRadAn=         5 AccDes= 0.00D+00
 Harris functional with IExCor= 1009 and IRadAn=       5 diagonalized for initial guess.
 HarFok:  IExCor= 1009 AccDes= 0.00D+00 IRadAn=         5 IDoV= 1 UseB2=F ITyADJ=14
 ICtDFT=  3500011 ScaDFX=  1.000000  1.000000  1.000000  1.000000
 FoFCou: FMM=F IPFlag=           0 FMFlag=      100000 FMFlg1=        2001
         NFxFlg=           0 DoJE=T BraDBF=F KetDBF=T FulRan=T
         wScrn=  0.000000 ICntrl=       500 IOpCl=  0 I1Cent=   200000004 NGrid=           0
         NMat0=    1 NMatS0=      1 NMatT0=    0 NMatD0=    1 NMtDS0=    0 NMtDT0=    0
 Petite list used in FoFCou.
 Harris En= -2364.38350901526    
 JPrj=0 DoOrth=F DoCkMO=F.
 Initial guess <Sx>= 0.0000 <Sy>= 0.0000 <Sz>= 0.5000 <S**2>= 0.7500 S= 0.5000
 Leave Link  401 at Thu Nov  6 08:00:19 2025, MaxMem= 30870077440 cpu:             557.6 elap:               8.8
 (Enter /public/software/gauss/g16/l502.exe)
 Integral symmetry usage will be decided dynamically.
 UHF open shell SCF:
 Using DIIS extrapolation, IDIIS=  1040.
 NGot= 30870077440 LenX= 30863488881 LenY= 30860257875
 Requested convergence on RMS density matrix=1.00D-08 within 128 cycles.
 Requested convergence on MAX density matrix=1.00D-06.
 Requested convergence on             energy=1.00D-06.
 No special actions if energy rises.
 Fock matrices will be formed incrementally for  20 cycles.

 Cycle   1  Pass 1  IDiag  1:
 FoFJK:  IHMeth= 1 ICntrl=       0 DoSepK=F KAlg= 0 I1Cent=           0 FoldK=F
 IRaf= 690000000 NMat=       1 IRICut=       1 DoRegI=T DoRafI=F ISym2E= 0 IDoP0=0 IntGTp=1.
 FoFCou: FMM=T IPFlag=           0 FMFlag=      100000 FMFlg1=        2001
         NFxFlg=           0 DoJE=F BraDBF=F KetDBF=F FulRan=T
         wScrn=  0.000000 ICntrl=         0 IOpCl=  1 I1Cent=           0 NGrid=           0
         NMat0=    1 NMatS0=      1 NMatT0=    0 NMatD0=    1 NMtDS0=    0 NMtDT0=    0
 Symmetry not used in FoFCou.
 FMM levels:  10  Number of levels for PrismC:   9
 Inv3:  Mode=1 IEnd=    70160688.
 Iteration    1 A*A^-1 deviation from unit magnitude is 1.09D-14 for    807.
 Iteration    1 A*A^-1 deviation from orthogonality  is 5.02D-15 for   4388    807.
 Iteration    1 A^-1*A deviation from unit magnitude is 8.66D-15 for    807.
 Iteration    1 A^-1*A deviation from orthogonality  is 3.75D-15 for   4817   2050.
 E= -2364.26514477059    
 DIIS: error= 1.33D-02 at cycle   1 NSaved=   1.
 NSaved= 1 IEnMin= 1 EnMin= -2364.26514477059     IErMin= 1 ErrMin= 1.33D-02
 ErrMax= 1.33D-02  0.00D+00 EMaxC= 1.00D-01 BMatC= 5.49D+00 BMatP= 5.49D+00
 IDIUse=3 WtCom= 8.67D-01 WtEn= 1.33D-01
 Coeff-Com:  0.100D+01
 Coeff-En:   0.100D+01
 Coeff:      0.100D+01
 Gap=     0.188 Goal=   None    Shift=    0.000
 Gap=     0.200 Goal=   None    Shift=    0.000
 GapD=    0.188 DampG=1.000 DampE=0.500 DampFc=0.5000 IDamp=-1.
 Damping current iteration by 5.00D-01
 RMSDP=3.13D-03 MaxDP=9.91D-01              OVMax= 2.77D-01

 Cycle   2  Pass 1  IDiag  1:
 RMSU=  1.56D-03    CP:  1.02D+00
 E= -2364.82621092740     Delta-E=       -0.561066156815 Rises=F Damp=T
 DIIS: error= 3.86D-03 at cycle   2 NSaved=   2.
 NSaved= 2 IEnMin= 2 EnMin= -2364.82621092740     IErMin= 2 ErrMin= 3.86D-03
 ErrMax= 3.86D-03  0.00D+00 EMaxC= 1.00D-01 BMatC= 4.37D-01 BMatP= 5.49D+00
 IDIUse=3 WtCom= 9.61D-01 WtEn= 3.86D-02
 Coeff-Com: -0.681D-01 0.107D+01
 Coeff-En:   0.000D+00 0.100D+01
 Coeff:     -0.654D-01 0.107D+01
 Gap=     0.229 Goal=   None    Shift=    0.000
 Gap=     0.164 Goal=   None    Shift=    0.000
 RMSDP=1.02D-03 MaxDP=2.71D-01 DE=-5.61D-01 OVMax= 1.97D-01

 Cycle   3  Pass 1  IDiag  1:
 RMSU=  8.36D-04    CP:  9.87D-01  6.30D-01
 E= -2365.37013135409     Delta-E=       -0.543920426690 Rises=F Damp=F
 DIIS: error= 2.70D-03 at cycle   3 NSaved=   3.
 NSaved= 3 IEnMin= 3 EnMin= -2365.37013135409     IErMin= 3 ErrMin= 2.70D-03
 ErrMax= 2.70D-03  0.00D+00 EMaxC= 1.00D-01 BMatC= 1.88D-01 BMatP= 4.37D-01
 IDIUse=3 WtCom= 9.73D-01 WtEn= 2.70D-02
 Coeff-Com: -0.928D-01 0.428D+00 0.665D+00
 Coeff-En:   0.000D+00 0.000D+00 0.100D+01
 Coeff:     -0.903D-01 0.416D+00 0.674D+00
 Gap=     0.180 Goal=   None    Shift=    0.000
 Gap=     0.155 Goal=   None    Shift=    0.000
 RMSDP=3.38D-04 MaxDP=7.33D-02 DE=-5.44D-01 OVMax= 6.74D-02

 Cycle   4  Pass 1  IDiag  1:
 RMSU=  2.37D-04    CP:  9.95D-01  7.72D-01  8.94D-01
 E= -2365.40583910543     Delta-E=       -0.035707751340 Rises=F Damp=F
 DIIS: error= 1.55D-03 at cycle   4 NSaved=   4.
 NSaved= 4 IEnMin= 4 EnMin= -2365.40583910543     IErMin= 4 ErrMin= 1.55D-03
 ErrMax= 1.55D-03  0.00D+00 EMaxC= 1.00D-01 BMatC= 4.27D-02 BMatP= 1.88D-01
 IDIUse=3 WtCom= 9.84D-01 WtEn= 1.55D-02
 Coeff-Com: -0.356D-01 0.957D-01 0.363D+00 0.577D+00
 Coeff-En:   0.000D+00 0.000D+00 0.143D+00 0.857D+00
 Coeff:     -0.351D-01 0.942D-01 0.359D+00 0.581D+00
 Gap=     0.174 Goal=   None    Shift=    0.000
 Gap=     0.156 Goal=   None    Shift=    0.000
 RMSDP=1.66D-04 MaxDP=4.67D-02 DE=-3.57D-02 OVMax= 2.25D-02

 Cycle   5  Pass 1  IDiag  1:
 RMSU=  8.23D-05    CP:  9.91D-01  6.98D-01  9.59D-01  7.37D-01
 E= -2365.41526921238     Delta-E=       -0.009430106943 Rises=F Damp=F
 DIIS: error= 2.96D-04 at cycle   5 NSaved=   5.
 NSaved= 5 IEnMin= 5 EnMin= -2365.41526921238     IErMin= 5 ErrMin= 2.96D-04
 ErrMax= 2.96D-04  0.00D+00 EMaxC= 1.00D-01 BMatC= 1.83D-03 BMatP= 4.27D-02
 IDIUse=3 WtCom= 9.97D-01 WtEn= 2.96D-03
 Coeff-Com: -0.869D-02 0.149D-01 0.120D+00 0.253D+00 0.621D+00
 Coeff-En:   0.000D+00 0.000D+00 0.000D+00 0.000D+00 0.100D+01
 Coeff:     -0.866D-02 0.148D-01 0.120D+00 0.252D+00 0.622D+00
 Gap=     0.175 Goal=   None    Shift=    0.000
 Gap=     0.158 Goal=   None    Shift=    0.000
 RMSDP=3.09D-05 MaxDP=6.11D-03 DE=-9.43D-03 OVMax= 7.55D-03

 Cycle   6  Pass 1  IDiag  1:
 RMSU=  2.72D-05    CP:  9.91D-01  7.06D-01  9.58D-01  7.65D-01  9.58D-01
 E= -2365.41577512904     Delta-E=       -0.000505916669 Rises=F Damp=F
 DIIS: error= 1.27D-04 at cycle   6 NSaved=   6.
 NSaved= 6 IEnMin= 6 EnMin= -2365.41577512904     IErMin= 6 ErrMin= 1.27D-04
 ErrMax= 1.27D-04  0.00D+00 EMaxC= 1.00D-01 BMatC= 2.07D-04 BMatP= 1.83D-03
 IDIUse=3 WtCom= 9.99D-01 WtEn= 1.27D-03
 Coeff-Com:  0.206D-02-0.806D-02-0.208D-02 0.139D-01 0.203D+00 0.791D+00
 Coeff-En:   0.000D+00 0.000D+00 0.000D+00 0.000D+00 0.000D+00 0.100D+01
 Coeff:      0.206D-02-0.805D-02-0.208D-02 0.139D-01 0.203D+00 0.791D+00
 Gap=     0.176 Goal=   None    Shift=    0.000
 Gap=     0.159 Goal=   None    Shift=    0.000
 RMSDP=2.72D-05 MaxDP=7.74D-03 DE=-5.06D-04 OVMax= 5.09D-03

 Cycle   7  Pass 1  IDiag  1:
 RMSU=  1.17D-05    CP:  9.91D-01  6.96D-01  9.66D-01  7.84D-01  1.14D+00
                    CP:  1.26D+00
 E= -2365.41589876035     Delta-E=       -0.000123631310 Rises=F Damp=F
 DIIS: error= 7.51D-05 at cycle   7 NSaved=   7.
 NSaved= 7 IEnMin= 7 EnMin= -2365.41589876035     IErMin= 7 ErrMin= 7.51D-05
 ErrMax= 7.51D-05  0.00D+00 EMaxC= 1.00D-01 BMatC= 5.77D-05 BMatP= 2.07D-04
 IDIUse=1 WtCom= 1.00D+00 WtEn= 0.00D+00
 Coeff-Com:  0.274D-02-0.635D-02-0.261D-01-0.518D-01-0.732D-01 0.280D+00
 Coeff-Com:  0.874D+00
 Coeff:      0.274D-02-0.635D-02-0.261D-01-0.518D-01-0.732D-01 0.280D+00
 Coeff:      0.874D+00
 Gap=     0.177 Goal=   None    Shift=    0.000
 Gap=     0.160 Goal=   None    Shift=    0.000
 RMSDP=1.51D-05 MaxDP=3.37D-03 DE=-1.24D-04 OVMax= 4.03D-03

 Cycle   8  Pass 1  IDiag  1:
 RMSU=  5.17D-06    CP:  9.91D-01  6.91D-01  9.70D-01  8.00D-01  1.23D+00
                    CP:  1.53D+00  1.42D+00
 E= -2365.41594825498     Delta-E=       -0.000049494625 Rises=F Damp=F
 DIIS: error= 4.42D-05 at cycle   8 NSaved=   8.
 NSaved= 8 IEnMin= 8 EnMin= -2365.41594825498     IErMin= 8 ErrMin= 4.42D-05
 ErrMax= 4.42D-05  0.00D+00 EMaxC= 1.00D-01 BMatC= 1.54D-05 BMatP= 5.77D-05
 IDIUse=1 WtCom= 1.00D+00 WtEn= 0.00D+00
 Coeff-Com:  0.586D-03-0.605D-03-0.938D-02-0.240D-01-0.723D-01-0.909D-01
 Coeff-Com:  0.338D+00 0.859D+00
 Coeff:      0.586D-03-0.605D-03-0.938D-02-0.240D-01-0.723D-01-0.909D-01
 Coeff:      0.338D+00 0.859D+00
 Gap=     0.177 Goal=   None    Shift=    0.000
 Gap=     0.161 Goal=   None    Shift=    0.000
 RMSDP=8.90D-06 MaxDP=2.02D-03 DE=-4.95D-05 OVMax= 2.57D-03

 Cycle   9  Pass 1  IDiag  1:
 RMSU=  2.77D-06    CP:  9.90D-01  6.89D-01  9.72D-01  8.07D-01  1.28D+00
                    CP:  1.64D+00  1.76D+00  1.44D+00
 E= -2365.41596206234     Delta-E=       -0.000013807356 Rises=F Damp=F
 DIIS: error= 1.65D-05 at cycle   9 NSaved=   9.
 NSaved= 9 IEnMin= 9 EnMin= -2365.41596206234     IErMin= 9 ErrMin= 1.65D-05
 ErrMax= 1.65D-05  0.00D+00 EMaxC= 1.00D-01 BMatC= 4.17D-06 BMatP= 1.54D-05
 IDIUse=1 WtCom= 1.00D+00 WtEn= 0.00D+00
 Coeff-Com: -0.445D-03 0.134D-02 0.262D-02 0.298D-02-0.867D-02-0.109D+00
 Coeff-Com: -0.687D-01 0.359D+00 0.821D+00
 Coeff:     -0.445D-03 0.134D-02 0.262D-02 0.298D-02-0.867D-02-0.109D+00
 Coeff:     -0.687D-01 0.359D+00 0.821D+00
 Gap=     0.177 Goal=   None    Shift=    0.000
 Gap=     0.161 Goal=   None    Shift=    0.000
 RMSDP=3.92D-06 MaxDP=8.17D-04 DE=-1.38D-05 OVMax= 1.24D-03

 Cycle  10  Pass 1  IDiag  1:
 RMSU=  1.37D-06    CP:  9.90D-01  6.88D-01  9.72D-01  8.09D-01  1.30D+00
                    CP:  1.69D+00  1.92D+00  1.81D+00  1.31D+00
 E= -2365.41596543612     Delta-E=       -0.000003373780 Rises=F Damp=F
 DIIS: error= 6.49D-06 at cycle  10 NSaved=  10.
 NSaved=10 IEnMin=10 EnMin= -2365.41596543612     IErMin=10 ErrMin= 6.49D-06
 ErrMax= 6.49D-06  0.00D+00 EMaxC= 1.00D-01 BMatC= 1.05D-06 BMatP= 4.17D-06
 IDIUse=1 WtCom= 1.00D+00 WtEn= 0.00D+00
 Coeff-Com: -0.372D-03 0.812D-03 0.373D-02 0.815D-02 0.161D-01-0.288D-01
 Coeff-Com: -0.124D+00-0.759D-01 0.363D+00 0.837D+00
 Coeff:     -0.372D-03 0.812D-03 0.373D-02 0.815D-02 0.161D-01-0.288D-01
 Coeff:     -0.124D+00-0.759D-01 0.363D+00 0.837D+00
 Gap=     0.177 Goal=   None    Shift=    0.000
 Gap=     0.161 Goal=   None    Shift=    0.000
 RMSDP=2.23D-06 MaxDP=5.19D-04 DE=-3.37D-06 OVMax= 8.46D-04

 Cycle  11  Pass 1  IDiag  1:
 RMSU=  6.98D-07    CP:  9.90D-01  6.87D-01  9.72D-01  8.10D-01  1.31D+00
                    CP:  1.70D+00  2.00D+00  1.99D+00  1.68D+00  1.34D+00
 E= -2365.41596632818     Delta-E=       -0.000000892062 Rises=F Damp=F
 DIIS: error= 3.01D-06 at cycle  11 NSaved=  11.
 NSaved=11 IEnMin=11 EnMin= -2365.41596632818     IErMin=11 ErrMin= 3.01D-06
 ErrMax= 3.01D-06  0.00D+00 EMaxC= 1.00D-01 BMatC= 2.09D-07 BMatP= 1.05D-06
 IDIUse=1 WtCom= 1.00D+00 WtEn= 0.00D+00
 Coeff-Com: -0.519D-04 0.485D-04 0.813D-03 0.247D-02 0.774D-02 0.811D-02
 Coeff-Com: -0.321D-01-0.895D-01-0.169D-01 0.335D+00 0.785D+00
 Coeff:     -0.519D-04 0.485D-04 0.813D-03 0.247D-02 0.774D-02 0.811D-02
 Coeff:     -0.321D-01-0.895D-01-0.169D-01 0.335D+00 0.785D+00
 Gap=     0.177 Goal=   None    Shift=    0.000
 Gap=     0.161 Goal=   None    Shift=    0.000
 RMSDP=7.50D-07 MaxDP=1.39D-04 DE=-8.92D-07 OVMax= 3.01D-04

 Cycle  12  Pass 1  IDiag  1:
 RMSU=  3.29D-07    CP:  9.90D-01  6.87D-01  9.72D-01  8.10D-01  1.31D+00
                    CP:  1.70D+00  2.01D+00  2.06D+00  1.79D+00  1.57D+00
                    CP:  1.29D+00
 E= -2365.41596648503     Delta-E=       -0.000000156853 Rises=F Damp=F
 DIIS: error= 1.98D-06 at cycle  12 NSaved=  12.
 NSaved=12 IEnMin=12 EnMin= -2365.41596648503     IErMin=12 ErrMin= 1.98D-06
 ErrMax= 1.98D-06  0.00D+00 EMaxC= 1.00D-01 BMatC= 5.15D-08 BMatP= 2.09D-07
 IDIUse=1 WtCom= 1.00D+00 WtEn= 0.00D+00
 Coeff-Com:  0.690D-04-0.177D-03-0.598D-03-0.978D-03-0.172D-03 0.105D-01
 Coeff-Com:  0.158D-01-0.198D-01-0.101D+00-0.527D-01 0.329D+00 0.820D+00
 Coeff:      0.690D-04-0.177D-03-0.598D-03-0.978D-03-0.172D-03 0.105D-01
 Coeff:      0.158D-01-0.198D-01-0.101D+00-0.527D-01 0.329D+00 0.820D+00
 Gap=     0.177 Goal=   None    Shift=    0.000
 Gap=     0.161 Goal=   None    Shift=    0.000
 RMSDP=4.05D-07 MaxDP=6.48D-05 DE=-1.57D-07 OVMax= 2.07D-04

 Cycle  13  Pass 1  IDiag  1:
 RMSU=  1.57D-07    CP:  9.90D-01  6.87D-01  9.73D-01  8.10D-01  1.31D+00
                    CP:  1.70D+00  2.01D+00  2.07D+00  1.86D+00  1.71D+00
                    CP:  1.60D+00  1.27D+00
 E= -2365.41596653141     Delta-E=       -0.000000046376 Rises=F Damp=F
 DIIS: error= 9.96D-07 at cycle  13 NSaved=  13.
 NSaved=13 IEnMin=13 EnMin= -2365.41596653141     IErMin=13 ErrMin= 9.96D-07
 ErrMax= 9.96D-07  0.00D+00 EMaxC= 1.00D-01 BMatC= 1.40D-08 BMatP= 5.15D-08
 IDIUse=1 WtCom= 1.00D+00 WtEn= 0.00D+00
 Coeff-Com:  0.387D-04-0.809D-04-0.429D-03-0.982D-03-0.165D-02 0.247D-02
 Coeff-Com:  0.138D-01 0.127D-01-0.422D-01-0.979D-01-0.403D-01 0.367D+00
 Coeff-Com:  0.787D+00
 Coeff:      0.387D-04-0.809D-04-0.429D-03-0.982D-03-0.165D-02 0.247D-02
 Coeff:      0.138D-01 0.127D-01-0.422D-01-0.979D-01-0.403D-01 0.367D+00
 Coeff:      0.787D+00
 Gap=     0.177 Goal=   None    Shift=    0.000
 Gap=     0.161 Goal=   None    Shift=    0.000
 RMSDP=2.05D-07 MaxDP=3.93D-05 DE=-4.64D-08 OVMax= 9.73D-05

 Cycle  14  Pass 1  IDiag  1:
 RMSU=  7.69D-08    CP:  9.90D-01  6.87D-01  9.73D-01  8.10D-01  1.31D+00
                    CP:  1.70D+00  2.01D+00  2.08D+00  1.87D+00  1.76D+00
                    CP:  1.72D+00  1.53D+00  1.33D+00
 E= -2365.41596654416     Delta-E=       -0.000000012754 Rises=F Damp=F
 DIIS: error= 5.87D-07 at cycle  14 NSaved=  14.
 NSaved=14 IEnMin=14 EnMin= -2365.41596654416     IErMin=14 ErrMin= 5.87D-07
 ErrMax= 5.87D-07  0.00D+00 EMaxC= 1.00D-01 BMatC= 3.55D-09 BMatP= 1.40D-08
 IDIUse=1 WtCom= 1.00D+00 WtEn= 0.00D+00
 Coeff-Com: -0.237D-05 0.123D-04-0.149D-04-0.162D-03-0.673D-03-0.164D-02
 Coeff-Com:  0.156D-02 0.104D-01 0.895D-02-0.260D-01-0.106D+00-0.605D-01
 Coeff-Com:  0.310D+00 0.865D+00
 Coeff:     -0.237D-05 0.123D-04-0.149D-04-0.162D-03-0.673D-03-0.164D-02
 Coeff:      0.156D-02 0.104D-01 0.895D-02-0.260D-01-0.106D+00-0.605D-01
 Coeff:      0.310D+00 0.865D+00
 Gap=     0.177 Goal=   None    Shift=    0.000
 Gap=     0.161 Goal=   None    Shift=    0.000
 RMSDP=1.05D-07 MaxDP=1.33D-05 DE=-1.28D-08 OVMax= 5.73D-05

 Cycle  15  Pass 1  IDiag  1:
 RMSU=  4.29D-08    CP:  9.90D-01  6.87D-01  9.73D-01  8.10D-01  1.31D+00
                    CP:  1.71D+00  2.01D+00  2.09D+00  1.88D+00  1.78D+00
                    CP:  1.77D+00  1.66D+00  1.66D+00  1.50D+00
 E= -2365.41596654829     Delta-E=       -0.000000004126 Rises=F Damp=F
 DIIS: error= 3.47D-07 at cycle  15 NSaved=  15.
 NSaved=15 IEnMin=15 EnMin= -2365.41596654829     IErMin=15 ErrMin= 3.47D-07
 ErrMax= 3.47D-07  0.00D+00 EMaxC= 1.00D-01 BMatC= 1.08D-09 BMatP= 3.55D-09
 IDIUse=1 WtCom= 1.00D+00 WtEn= 0.00D+00
 Coeff-Com: -0.135D-04 0.311D-04 0.152D-03 0.283D-03 0.285D-03-0.145D-02
 Coeff-Com: -0.428D-02-0.744D-03 0.179D-01 0.242D-01-0.263D-01-0.145D+00
 Coeff-Com: -0.153D+00 0.346D+00 0.942D+00
 Coeff:     -0.135D-04 0.311D-04 0.152D-03 0.283D-03 0.285D-03-0.145D-02
 Coeff:     -0.428D-02-0.744D-03 0.179D-01 0.242D-01-0.263D-01-0.145D+00
 Coeff:     -0.153D+00 0.346D+00 0.942D+00
 Gap=     0.177 Goal=   None    Shift=    0.000
 Gap=     0.161 Goal=   None    Shift=    0.000
 RMSDP=7.06D-08 MaxDP=1.07D-05 DE=-4.13D-09 OVMax= 3.60D-05

 Cycle  16  Pass 1  IDiag  1:
 RMSU=  2.34D-08    CP:  9.90D-01  6.87D-01  9.73D-01  8.10D-01  1.31D+00
                    CP:  1.71D+00  2.02D+00  2.09D+00  1.88D+00  1.79D+00
                    CP:  1.79D+00  1.73D+00  1.84D+00  2.00D+00  1.61D+00
 E= -2365.41596654960     Delta-E=       -0.000000001314 Rises=F Damp=F
 DIIS: error= 1.27D-07 at cycle  16 NSaved=  16.
 NSaved=16 IEnMin=16 EnMin= -2365.41596654960     IErMin=16 ErrMin= 1.27D-07
 ErrMax= 1.27D-07  0.00D+00 EMaxC= 1.00D-01 BMatC= 2.72D-10 BMatP= 1.08D-09
 IDIUse=1 WtCom= 1.00D+00 WtEn= 0.00D+00
 Coeff-Com: -0.404D-05 0.806D-05 0.636D-04 0.148D-03 0.253D-03-0.176D-03
 Coeff-Com: -0.206D-02-0.289D-02 0.511D-02 0.162D-01 0.166D-01-0.424D-01
 Coeff-Com: -0.147D+00-0.847D-01 0.389D+00 0.852D+00
 Coeff:     -0.404D-05 0.806D-05 0.636D-04 0.148D-03 0.253D-03-0.176D-03
 Coeff:     -0.206D-02-0.289D-02 0.511D-02 0.162D-01 0.166D-01-0.424D-01
 Coeff:     -0.147D+00-0.847D-01 0.389D+00 0.852D+00
 Gap=     0.177 Goal=   None    Shift=    0.000
 Gap=     0.161 Goal=   None    Shift=    0.000
 RMSDP=3.43D-08 MaxDP=4.80D-06 DE=-1.31D-09 OVMax= 1.22D-05

 Cycle  17  Pass 1  IDiag  1:
 RMSU=  1.20D-08    CP:  9.90D-01  6.87D-01  9.73D-01  8.10D-01  1.31D+00
                    CP:  1.71D+00  2.02D+00  2.09D+00  1.87D+00  1.79D+00
                    CP:  1.78D+00  1.75D+00  1.92D+00  2.24D+00  2.04D+00
                    CP:  1.37D+00
 E= -2365.41596655003     Delta-E=       -0.000000000432 Rises=F Damp=F
 DIIS: error= 6.99D-08 at cycle  17 NSaved=  17.
 NSaved=17 IEnMin=17 EnMin= -2365.41596655003     IErMin=17 ErrMin= 6.99D-08
 ErrMax= 6.99D-08  0.00D+00 EMaxC= 1.00D-01 BMatC= 5.31D-11 BMatP= 2.72D-10
 IDIUse=1 WtCom= 1.00D+00 WtEn= 0.00D+00
 Coeff-Com:  0.138D-05-0.357D-05-0.844D-05-0.291D-05 0.389D-04 0.231D-03
 Coeff-Com:  0.157D-03-0.927D-03-0.193D-02 0.692D-03 0.121D-01 0.168D-01
 Coeff-Com: -0.246D-01-0.109D+00-0.600D-01 0.326D+00 0.840D+00
 Coeff:      0.138D-05-0.357D-05-0.844D-05-0.291D-05 0.389D-04 0.231D-03
 Coeff:      0.157D-03-0.927D-03-0.193D-02 0.692D-03 0.121D-01 0.168D-01
 Coeff:     -0.246D-01-0.109D+00-0.600D-01 0.326D+00 0.840D+00
 Gap=     0.177 Goal=   None    Shift=    0.000
 Gap=     0.161 Goal=   None    Shift=    0.000
 RMSDP=1.54D-08 MaxDP=1.95D-06 DE=-4.32D-10 OVMax= 6.73D-06

 Cycle  18  Pass 1  IDiag  1:
 RMSU=  5.22D-09    CP:  9.90D-01  6.87D-01  9.73D-01  8.10D-01  1.31D+00
                    CP:  1.71D+00  2.02D+00  2.09D+00  1.87D+00  1.79D+00
                    CP:  1.78D+00  1.75D+00  1.94D+00  2.32D+00  2.24D+00
                    CP:  1.69D+00  1.35D+00
 E= -2365.41596655003     Delta-E=        0.000000000007 Rises=F Damp=F
 DIIS: error= 3.33D-08 at cycle  18 NSaved=  18.
 NSaved=18 IEnMin=17 EnMin= -2365.41596655003     IErMin=18 ErrMin= 3.33D-08
 ErrMax= 3.33D-08  0.00D+00 EMaxC= 1.00D-01 BMatC= 1.50D-11 BMatP= 5.31D-11
 IDIUse=1 WtCom= 1.00D+00 WtEn= 0.00D+00
 Coeff-Com:  0.123D-05-0.279D-05-0.152D-04-0.269D-04-0.271D-04 0.125D-03
 Coeff-Com:  0.440D-03 0.115D-03-0.170D-02-0.271D-02 0.203D-02 0.151D-01
 Coeff-Com:  0.163D-01-0.287D-01-0.980D-01-0.279D-01 0.374D+00 0.751D+00
 Coeff:      0.123D-05-0.279D-05-0.152D-04-0.269D-04-0.271D-04 0.125D-03
 Coeff:      0.440D-03 0.115D-03-0.170D-02-0.271D-02 0.203D-02 0.151D-01
 Coeff:      0.163D-01-0.287D-01-0.980D-01-0.279D-01 0.374D+00 0.751D+00
 Gap=     0.177 Goal=   None    Shift=    0.000
 Gap=     0.161 Goal=   None    Shift=    0.000
 RMSDP=7.32D-09 MaxDP=1.18D-06 DE= 7.28D-12 OVMax= 3.31D-06

 Cycle  19  Pass 1  IDiag  1:
 RMSU=  2.66D-09    CP:  9.90D-01  6.87D-01  9.73D-01  8.10D-01  1.31D+00
                    CP:  1.71D+00  2.02D+00  2.09D+00  1.87D+00  1.79D+00
                    CP:  1.78D+00  1.75D+00  1.94D+00  2.34D+00  2.31D+00
                    CP:  1.81D+00  1.65D+00  1.31D+00
 E= -2365.41596654993     Delta-E=        0.000000000099 Rises=F Damp=F
 DIIS: error= 2.01D-08 at cycle  19 NSaved=  19.
 NSaved=19 IEnMin=17 EnMin= -2365.41596655003     IErMin=19 ErrMin= 2.01D-08
 ErrMax= 2.01D-08  0.00D+00 EMaxC= 1.00D-01 BMatC= 4.01D-12 BMatP= 1.50D-11
 IDIUse=1 WtCom= 1.00D+00 WtEn= 0.00D+00
 Coeff-Com:  0.126D-06-0.236D-06-0.459D-05-0.103D-04-0.229D-04-0.366D-05
 Coeff-Com:  0.160D-03 0.286D-03-0.197D-03-0.133D-02-0.231D-02 0.203D-02
 Coeff-Com:  0.134D-01 0.173D-01-0.255D-01-0.106D+00-0.621D-01 0.305D+00
 Coeff-Com:  0.859D+00
 Coeff:      0.126D-06-0.236D-06-0.459D-05-0.103D-04-0.229D-04-0.366D-05
 Coeff:      0.160D-03 0.286D-03-0.197D-03-0.133D-02-0.231D-02 0.203D-02
 Coeff:      0.134D-01 0.173D-01-0.255D-01-0.106D+00-0.621D-01 0.305D+00
 Coeff:      0.859D+00
 Gap=     0.177 Goal=   None    Shift=    0.000
 Gap=     0.161 Goal=   None    Shift=    0.000
 RMSDP=5.44D-09 MaxDP=1.24D-06 DE= 9.91D-11 OVMax= 2.31D-06

 Cycle  20  Pass 1  IDiag  1:
 RMSU=  1.37D-09    CP:  9.90D-01  6.87D-01  9.73D-01  8.10D-01  1.31D+00
                    CP:  1.71D+00  2.02D+00  2.09D+00  1.87D+00  1.79D+00
                    CP:  1.78D+00  1.75D+00  1.94D+00  2.34D+00  2.34D+00
                    CP:  1.88D+00  1.79D+00  1.69D+00  1.44D+00
 E= -2365.41596654951     Delta-E=        0.000000000413 Rises=F Damp=F
 DIIS: error= 1.23D-08 at cycle  20 NSaved=  20.
 NSaved=20 IEnMin=17 EnMin= -2365.41596655003     IErMin=20 ErrMin= 1.23D-08
 ErrMax= 1.23D-08  0.00D+00 EMaxC= 1.00D-01 BMatC= 1.27D-12 BMatP= 4.01D-12
 IDIUse=1 WtCom= 1.00D+00 WtEn= 0.00D+00
 Coeff-Com: -0.399D-06 0.925D-06 0.311D-05 0.493D-05-0.235D-05-0.432D-04
 Coeff-Com: -0.776D-04 0.872D-04 0.492D-03 0.285D-03-0.186D-02-0.444D-02
 Coeff-Com:  0.932D-03 0.187D-01 0.233D-01-0.439D-01-0.154D+00-0.117D+00
 Coeff-Com:  0.417D+00 0.861D+00
 Coeff:     -0.399D-06 0.925D-06 0.311D-05 0.493D-05-0.235D-05-0.432D-04
 Coeff:     -0.776D-04 0.872D-04 0.492D-03 0.285D-03-0.186D-02-0.444D-02
 Coeff:      0.932D-03 0.187D-01 0.233D-01-0.439D-01-0.154D+00-0.117D+00
 Coeff:      0.417D+00 0.861D+00
 Gap=     0.177 Goal=   None    Shift=    0.000
 Gap=     0.161 Goal=   None    Shift=    0.000
 RMSDP=3.19D-09 MaxDP=6.88D-07 DE= 4.13D-10 OVMax= 1.40D-06

 Error on total polarization charges =  0.02465
 SCF Done:  E(UM062X) =  -2365.41596655     A.U. after   20 cycles
            NFock= 20  Conv=0.32D-08     -V/T= 2.0041
 <Sx>= 0.0000 <Sy>= 0.0000 <Sz>= 0.5000 <S**2>= 0.7759 S= 0.5128
 <L.S>= 0.000000000000E+00
 KE= 2.355751876440D+03 PE=-1.467506647532D+04 EE= 5.408634733027D+03
 Annihilation of the first spin contaminant:
 S**2 before annihilation     0.7759,   after     0.7505
 Leave Link  502 at Thu Nov  6 08:25:28 2025, MaxMem= 30870077440 cpu:           95367.8 elap:            1509.2
 (Enter /public/software/gauss/g16/l601.exe)
 Copying SCF densities to generalized density rwf, IOpCl= 1 IROHF=0.

 **********************************************************************

            Population analysis using the SCF density.

 **********************************************************************

 Orbital symmetries:
 Alpha Orbitals:
       Occupied  (A) (A) (A) (A) (A) (A) (A) (A) (A) (A) (A) (A)
                 (A) (A) (A) (A) (A) (A) (A) (A) (A) (A) (A) (A)
                 (A) (A) (A) (A) (A) (A) (A) (A) (A) (A) (A) (A)
                 (A) (A) (A) (A) (A) (A) (A) (A) (A) (A) (A) (A)
                 (A) (A) (A) (A) (A) (A) (A) (A) (A) (A) (A) (A)
                 (A) (A) (A) (A) (A) (A) (A) (A) (A) (A) (A) (A)
                 (A) (A) (A) (A) (A) (A) (A) (A) (A) (A) (A) (A)
                 (A) (A) (A) (A) (A) (A) (A) (A) (A) (A) (A) (A)
                 (A) (A) (A) (A) (A) (A) (A) (A) (A) (A) (A) (A)
                 (A) (A) (A) (A) (A) (A) (A) (A) (A) (A) (A) (A)
                 (A) (A) (A) (A) (A) (A) (A) (A) (A) (A) (A) (A)
                 (A) (A) (A) (A) (A) (A) (A) (A) (A) (A) (A)
       Virtual   (A) (A) (A) (A) (A) (A) (A) (A) (A) (A) (A) (A)
                 (A) (A) (A) (A) (A) (A) (A) (A) (A) (A) (A) (A)
                 (A) (A) (A) (A) (A) (A) (A) (A) (A) (A) (A) (A)
                 (A) (A) (A) (A) (A) (A) (A) (A) (A) (A) (A) (A)
                 (A) (A) (A) (A) (A) (A) (A) (A) (A) (A) (A) (A)
                 (A) (A) (A) (A) (A) (A) (A) (A) (A) (A) (A) (A)
                 (A) (A) (A) (A) (A) (A) (A) (A) (A) (A) (A) (A)
                 (A) (A) (A) (A) (A) (A) (A) (A) (A) (A) (A) (A)
                 (A) (A) (A) (A) (A) (A) (A) (A) (A) (A) (A) (A)
                 (A) (A) (A) (A) (A) (A) (A) (A) (A) (A) (A) (A)
                 (A) (A) (A) (A) (A) (A) (A) (A) (A) (A) (A) (A)
                 (A) (A) (A) (A) (A) (A) (A) (A) (A) (A) (A) (A)
                 (A) (A) (A) (A) (A) (A) (A) (A) (A) (A) (A) (A)
                 (A) (A) (A) (A) (A) (A) (A) (A) (A) (A) (A) (A)
                 (A) (A) (A) (A) (A) (A) (A) (A) (A) (A) (A) (A)
                 (A) (A) (A) (A) (A) (A) (A) (A) (A) (A) (A) (A)
                 (A) (A) (A) (A) (A) (A) (A) (A) (A) (A) (A) (A)
                 (A) (A) (A) (A) (A) (A) (A) (A) (A) (A) (A) (A)
                 (A) (A) (A) (A) (A) (A) (A) (A) (A) (A) (A) (A)
                 (A) (A) (A) (A) (A) (A) (A) (A) (A) (A) (A) (A)
                 (A) (A) (A) (A) (A) (A) (A) (A) (A) (A) (A) (A)
                 (A) (A) (A) (A) (A) (A) (A) (A) (A) (A) (A) (A)
                 (A) (A) (A) (A) (A) (A) (A) (A) (A) (A) (A) (A)
                 (A) (A) (A) (A) (A) (A) (A) (A) (A) (A) (A) (A)
                 (A) (A) (A) (A) (A) (A) (A) (A) (A) (A) (A) (A)
                 (A) (A) (A) (A) (A) (A) (A) (A) (A) (A) (A) (A)
                 (A) (A) (A) (A) (A) (A) (A) (A) (A) (A) (A) (A)
                 (A) (A) (A) (A) (A) (A) (A) (A) (A) (A) (A) (A)
                 (A) (A) (A) (A) (A) (A) (A) (A) (A) (A) (A) (A)
                 (A) (A) (A) (A) (A) (A) (A) (A) (A) (A) (A) (A)
                 (A) (A) (A) (A) (A) (A) (A) (A) (A) (A) (A) (A)
                 (A) (A) (A) (A) (A) (A) (A) (A) (A) (A) (A) (A)
                 (A) (A) (A) (A) (A) (A) (A) (A) (A) (A) (A) (A)
                 (A) (A) (A) (A) (A) (A) (A) (A) (A) (A) (A) (A)
                 (A) (A) (A) (A) (A) (A) (A) (A) (A) (A) (A) (A)
                 (A) (A) (A) (A) (A) (A) (A) (A) (A) (A) (A) (A)
                 (A) (A) (A) (A) (A) (A) (A) (A) (A) (A) (A) (A)
                 (A) (A) (A) (A) (A) (A) (A) (A) (A) (A) (A) (A)
                 (A) (A) (A) (A) (A) (A) (A) (A) (A) (A) (A) (A)
                 (A) (A) (A) (A) (A) (A) (A) (A) (A) (A) (A) (A)
                 (A) (A) (A) (A) (A) (A) (A) (A) (A) (A) (A) (A)
                 (A) (A) (A) (A) (A) (A) (A) (A) (A) (A) (A) (A)
                 (A) (A) (A) (A) (A) (A) (A) (A) (A) (A) (A) (A)
                 (A) (A) (A) (A) (A) (A) (A) (A) (A) (A) (A) (A)
                 (A) (A) (A) (A) (A) (A) (A) (A) (A) (A) (A) (A)
                 (A) (A) (A) (A) (A) (A) (A) (A) (A) (A) (A) (A)
                 (A) (A) (A) (A) (A) (A) (A) (A) (A) (A) (A) (A)
                 (A) (A) (A) (A) (A) (A) (A) (A) (A) (A) (A) (A)
                 (A) (A) (A) (A) (A) (A) (A) (A) (A) (A) (A) (A)
                 (A) (A) (A) (A) (A) (A) (A) (A) (A) (A) (A) (A)
                 (A) (A) (A) (A) (A) (A) (A) (A) (A) (A) (A) (A)
                 (A) (A) (A) (A) (A) (A) (A) (A) (A) (A) (A) (A)
                 (A) (A) (A) (A) (A) (A) (A) (A) (A) (A) (A) (A)
                 (A) (A) (A) (A) (A) (A) (A) (A) (A) (A) (A) (A)
                 (A) (A) (A) (A) (A) (A) (A) (A) (A) (A) (A) (A)
                 (A) (A) (A) (A) (A) (A) (A) (A) (A) (A) (A) (A)
                 (A) (A) (A) (A) (A) (A) (A) (A) (A) (A) (A) (A)
                 (A) (A) (A) (A) (A) (A) (A) (A) (A) (A) (A) (A)
                 (A) (A) (A) (A) (A) (A) (A) (A) (A) (A) (A) (A)
                 (A) (A) (A) (A) (A) (A) (A) (A) (A) (A) (A) (A)
                 (A) (A) (A) (A) (A) (A) (A) (A) (A) (A) (A) (A)
                 (A) (A) (A) (A) (A) (A) (A) (A) (A) (A) (A) (A)
                 (A) (A) (A) (A) (A) (A) (A) (A) (A) (A) (A) (A)
                 (A) (A) (A) (A) (A) (A) (A) (A) (A) (A) (A) (A)
                 (A) (A) (A) (A) (A) (A) (A) (A) (A) (A) (A) (A)
                 (A) (A) (A) (A) (A) (A) (A) (A) (A) (A) (A) (A)
                 (A) (A) (A) (A) (A) (A) (A) (A) (A) (A) (A) (A)
                 (A) (A) (A) (A) (A) (A) (A) (A) (A) (A) (A) (A)
                 (A) (A) (A) (A) (A) (A) (A) (A) (A) (A) (A) (A)
                 (A) (A) (A) (A) (A) (A) (A) (A) (A) (A) (A) (A)
                 (A) (A) (A) (A) (A) (A) (A) (A) (A) (A) (A) (A)
                 (A) (A) (A) (A) (A) (A) (A) (A) (A) (A) (A) (A)
                 (A) (A) (A) (A) (A) (A) (A) (A) (A) (A) (A) (A)
                 (A) (A) (A) (A) (A) (A) (A) (A) (A) (A) (A) (A)
                 (A) (A) (A) (A) (A) (A) (A) (A) (A) (A) (A) (A)
                 (A) (A) (A) (A) (A) (A) (A) (A) (A) (A) (A) (A)
                 (A) (A) (A) (A) (A) (A) (A) (A) (A) (A) (A) (A)
                 (A) (A) (A) (A) (A) (A) (A) (A) (A) (A) (A) (A)
                 (A) (A) (A) (A) (A) (A) (A) (A) (A) (A) (A) (A)
                 (A) (A) (A) (A) (A) (A) (A) (A) (A) (A) (A) (A)
                 (A) (A) (A) (A) (A) (A) (A) (A) (A) (A) (A) (A)
                 (A) (A) (A) (A) (A) (A) (A) (A) (A) (A) (A) (A)
                 (A) (A) (A) (A) (A) (A) (A) (A) (A) (A) (A) (A)
                 (A) (A) (A) (A) (A) (A) (A) (A) (A) (A) (A) (A)
                 (A) (A) (A) (A) (A) (A) (A) (A) (A) (A) (A) (A)
                 (A) (A) (A) (A) (A) (A) (A) (A) (A) (A) (A) (A)
                 (A) (A) (A) (A) (A) (A) (A) (A) (A) (A) (A) (A)
                 (A) (A) (A) (A) (A) (A) (A) (A) (A) (A) (A) (A)
                 (A) (A) (A) (A) (A) (A) (A) (A) (A) (A) (A) (A)
                 (A) (A) (A) (A) (A) (A) (A) (A) (A) (A) (A) (A)
                 (A) (A) (A) (A) (A) (A) (A) (A) (A) (A) (A) (A)
                 (A) (A) (A) (A) (A) (A) (A) (A) (A) (A) (A) (A)
                 (A) (A) (A) (A) (A) (A) (A) (A) (A) (A) (A) (A)
                 (A) (A) (A) (A) (A) (A) (A) (A) (A) (A) (A) (A)
                 (A) (A) (A) (A) (A) (A) (A) (A) (A) (A) (A) (A)
                 (A) (A) (A) (A) (A) (A) (A) (A) (A) (A) (A) (A)
                 (A) (A) (A) (A) (A) (A) (A) (A) (A) (A) (A) (A)
                 (A) (A) (A) (A) (A) (A) (A) (A) (A) (A) (A) (A)
                 (A) (A) (A) (A) (A) (A) (A) (A) (A) (A) (A) (A)
                 (A) (A) (A) (A) (A) (A) (A) (A) (A) (A) (A) (A)
                 (A) (A) (A) (A) (A) (A) (A) (A) (A) (A) (A) (A)
                 (A) (A) (A) (A) (A) (A) (A) (A) (A) (A) (A) (A)
                 (A) (A) (A) (A) (A) (A) (A) (A) (A) (A) (A) (A)
                 (A) (A) (A) (A) (A) (A) (A) (A) (A) (A) (A) (A)
                 (A) (A) (A) (A) (A) (A) (A) (A) (A) (A) (A) (A)
                 (A) (A) (A) (A) (A) (A) (A) (A) (A) (A) (A) (A)
                 (A) (A) (A) (A) (A) (A) (A) (A) (A) (A) (A) (A)
                 (A) (A) (A) (A) (A) (A) (A) (A) (A) (A) (A) (A)
                 (A) (A) (A) (A) (A) (A) (A) (A) (A) (A) (A) (A)
                 (A) (A) (A) (A) (A) (A) (A) (A) (A) (A) (A) (A)
                 (A) (A) (A) (A) (A) (A) (A) (A) (A) (A) (A) (A)
                 (A) (A) (A) (A) (A) (A) (A) (A) (A) (A) (A) (A)
                 (A) (A) (A) (A) (A) (A) (A) (A) (A) (A) (A) (A)
                 (A) (A) (A) (A) (A) (A) (A) (A) (A) (A) (A) (A)
                 (A) (A) (A) (A) (A) (A) (A) (A) (A) (A) (A) (A)
                 (A) (A) (A) (A) (A) (A) (A) (A) (A) (A) (A) (A)
                 (A) (A) (A) (A) (A) (A) (A) (A) (A) (A) (A) (A)
                 (A) (A) (A) (A) (A) (A) (A) (A) (A) (A) (A) (A)
                 (A) (A) (A) (A) (A) (A) (A) (A) (A) (A) (A) (A)
                 (A) (A) (A) (A) (A) (A) (A)
 Beta  Orbitals:
       Occupied  (A) (A) (A) (A) (A) (A) (A) (A) (A) (A) (A) (A)
                 (A) (A) (A) (A) (A) (A) (A) (A) (A) (A) (A) (A)
                 (A) (A) (A) (A) (A) (A) (A) (A) (A) (A) (A) (A)
                 (A) (A) (A) (A) (A) (A) (A) (A) (A) (A) (A) (A)
                 (A) (A) (A) (A) (A) (A) (A) (A) (A) (A) (A) (A)
                 (A) (A) (A) (A) (A) (A) (A) (A) (A) (A) (A) (A)
                 (A) (A) (A) (A) (A) (A) (A) (A) (A) (A) (A) (A)
                 (A) (A) (A) (A) (A) (A) (A) (A) (A) (A) (A) (A)
                 (A) (A) (A) (A) (A) (A) (A) (A) (A) (A) (A) (A)
                 (A) (A) (A) (A) (A) (A) (A) (A) (A) (A) (A) (A)
                 (A) (A) (A) (A) (A) (A) (A) (A) (A) (A) (A) (A)
                 (A) (A) (A) (A) (A) (A) (A) (A) (A) (A)
       Virtual   (A) (A) (A) (A) (A) (A) (A) (A) (A) (A) (A) (A)
                 (A) (A) (A) (A) (A) (A) (A) (A) (A) (A) (A) (A)
                 (A) (A) (A) (A) (A) (A) (A) (A) (A) (A) (A) (A)
                 (A) (A) (A) (A) (A) (A) (A) (A) (A) (A) (A) (A)
                 (A) (A) (A) (A) (A) (A) (A) (A) (A) (A) (A) (A)
                 (A) (A) (A) (A) (A) (A) (A) (A) (A) (A) (A) (A)
                 (A) (A) (A) (A) (A) (A) (A) (A) (A) (A) (A) (A)
                 (A) (A) (A) (A) (A) (A) (A) (A) (A) (A) (A) (A)
                 (A) (A) (A) (A) (A) (A) (A) (A) (A) (A) (A) (A)
                 (A) (A) (A) (A) (A) (A) (A) (A) (A) (A) (A) (A)
                 (A) (A) (A) (A) (A) (A) (A) (A) (A) (A) (A) (A)
                 (A) (A) (A) (A) (A) (A) (A) (A) (A) (A) (A) (A)
                 (A) (A) (A) (A) (A) (A) (A) (A) (A) (A) (A) (A)
                 (A) (A) (A) (A) (A) (A) (A) (A) (A) (A) (A) (A)
                 (A) (A) (A) (A) (A) (A) (A) (A) (A) (A) (A) (A)
                 (A) (A) (A) (A) (A) (A) (A) (A) (A) (A) (A) (A)
                 (A) (A) (A) (A) (A) (A) (A) (A) (A) (A) (A) (A)
                 (A) (A) (A) (A) (A) (A) (A) (A) (A) (A) (A) (A)
                 (A) (A) (A) (A) (A) (A) (A) (A) (A) (A) (A) (A)
                 (A) (A) (A) (A) (A) (A) (A) (A) (A) (A) (A) (A)
                 (A) (A) (A) (A) (A) (A) (A) (A) (A) (A) (A) (A)
                 (A) (A) (A) (A) (A) (A) (A) (A) (A) (A) (A) (A)
                 (A) (A) (A) (A) (A) (A) (A) (A) (A) (A) (A) (A)
                 (A) (A) (A) (A) (A) (A) (A) (A) (A) (A) (A) (A)
                 (A) (A) (A) (A) (A) (A) (A) (A) (A) (A) (A) (A)
                 (A) (A) (A) (A) (A) (A) (A) (A) (A) (A) (A) (A)
                 (A) (A) (A) (A) (A) (A) (A) (A) (A) (A) (A) (A)
                 (A) (A) (A) (A) (A) (A) (A) (A) (A) (A) (A) (A)
                 (A) (A) (A) (A) (A) (A) (A) (A) (A) (A) (A) (A)
                 (A) (A) (A) (A) (A) (A) (A) (A) (A) (A) (A) (A)
                 (A) (A) (A) (A) (A) (A) (A) (A) (A) (A) (A) (A)
                 (A) (A) (A) (A) (A) (A) (A) (A) (A) (A) (A) (A)
                 (A) (A) (A) (A) (A) (A) (A) (A) (A) (A) (A) (A)
                 (A) (A) (A) (A) (A) (A) (A) (A) (A) (A) (A) (A)
                 (A) (A) (A) (A) (A) (A) (A) (A) (A) (A) (A) (A)
                 (A) (A) (A) (A) (A) (A) (A) (A) (A) (A) (A) (A)
                 (A) (A) (A) (A) (A) (A) (A) (A) (A) (A) (A) (A)
                 (A) (A) (A) (A) (A) (A) (A) (A) (A) (A) (A) (A)
                 (A) (A) (A) (A) (A) (A) (A) (A) (A) (A) (A) (A)
                 (A) (A) (A) (A) (A) (A) (A) (A) (A) (A) (A) (A)
                 (A) (A) (A) (A) (A) (A) (A) (A) (A) (A) (A) (A)
                 (A) (A) (A) (A) (A) (A) (A) (A) (A) (A) (A) (A)
                 (A) (A) (A) (A) (A) (A) (A) (A) (A) (A) (A) (A)
                 (A) (A) (A) (A) (A) (A) (A) (A) (A) (A) (A) (A)
                 (A) (A) (A) (A) (A) (A) (A) (A) (A) (A) (A) (A)
                 (A) (A) (A) (A) (A) (A) (A) (A) (A) (A) (A) (A)
                 (A) (A) (A) (A) (A) (A) (A) (A) (A) (A) (A) (A)
                 (A) (A) (A) (A) (A) (A) (A) (A) (A) (A) (A) (A)
                 (A) (A) (A) (A) (A) (A) (A) (A) (A) (A) (A) (A)
                 (A) (A) (A) (A) (A) (A) (A) (A) (A) (A) (A) (A)
                 (A) (A) (A) (A) (A) (A) (A) (A) (A) (A) (A) (A)
                 (A) (A) (A) (A) (A) (A) (A) (A) (A) (A) (A) (A)
                 (A) (A) (A) (A) (A) (A) (A) (A) (A) (A) (A) (A)
                 (A) (A) (A) (A) (A) (A) (A) (A) (A) (A) (A) (A)
                 (A) (A) (A) (A) (A) (A) (A) (A) (A) (A) (A) (A)
                 (A) (A) (A) (A) (A) (A) (A) (A) (A) (A) (A) (A)
                 (A) (A) (A) (A) (A) (A) (A) (A) (A) (A) (A) (A)
                 (A) (A) (A) (A) (A) (A) (A) (A) (A) (A) (A) (A)
                 (A) (A) (A) (A) (A) (A) (A) (A) (A) (A) (A) (A)
                 (A) (A) (A) (A) (A) (A) (A) (A) (A) (A) (A) (A)
                 (A) (A) (A) (A) (A) (A) (A) (A) (A) (A) (A) (A)
                 (A) (A) (A) (A) (A) (A) (A) (A) (A) (A) (A) (A)
                 (A) (A) (A) (A) (A) (A) (A) (A) (A) (A) (A) (A)
                 (A) (A) (A) (A) (A) (A) (A) (A) (A) (A) (A) (A)
                 (A) (A) (A) (A) (A) (A) (A) (A) (A) (A) (A) (A)
                 (A) (A) (A) (A) (A) (A) (A) (A) (A) (A) (A) (A)
                 (A) (A) (A) (A) (A) (A) (A) (A) (A) (A) (A) (A)
                 (A) (A) (A) (A) (A) (A) (A) (A) (A) (A) (A) (A)
                 (A) (A) (A) (A) (A) (A) (A) (A) (A) (A) (A) (A)
                 (A) (A) (A) (A) (A) (A) (A) (A) (A) (A) (A) (A)
                 (A) (A) (A) (A) (A) (A) (A) (A) (A) (A) (A) (A)
                 (A) (A) (A) (A) (A) (A) (A) (A) (A) (A) (A) (A)
                 (A) (A) (A) (A) (A) (A) (A) (A) (A) (A) (A) (A)
                 (A) (A) (A) (A) (A) (A) (A) (A) (A) (A) (A) (A)
                 (A) (A) (A) (A) (A) (A) (A) (A) (A) (A) (A) (A)
                 (A) (A) (A) (A) (A) (A) (A) (A) (A) (A) (A) (A)
                 (A) (A) (A) (A) (A) (A) (A) (A) (A) (A) (A) (A)
                 (A) (A) (A) (A) (A) (A) (A) (A) (A) (A) (A) (A)
                 (A) (A) (A) (A) (A) (A) (A) (A) (A) (A) (A) (A)
                 (A) (A) (A) (A) (A) (A) (A) (A) (A) (A) (A) (A)
                 (A) (A) (A) (A) (A) (A) (A) (A) (A) (A) (A) (A)
                 (A) (A) (A) (A) (A) (A) (A) (A) (A) (A) (A) (A)
                 (A) (A) (A) (A) (A) (A) (A) (A) (A) (A) (A) (A)
                 (A) (A) (A) (A) (A) (A) (A) (A) (A) (A) (A) (A)
                 (A) (A) (A) (A) (A) (A) (A) (A) (A) (A) (A) (A)
                 (A) (A) (A) (A) (A) (A) (A) (A) (A) (A) (A) (A)
                 (A) (A) (A) (A) (A) (A) (A) (A) (A) (A) (A) (A)
                 (A) (A) (A) (A) (A) (A) (A) (A) (A) (A) (A) (A)
                 (A) (A) (A) (A) (A) (A) (A) (A) (A) (A) (A) (A)
                 (A) (A) (A) (A) (A) (A) (A) (A) (A) (A) (A) (A)
                 (A) (A) (A) (A) (A) (A) (A) (A) (A) (A) (A) (A)
                 (A) (A) (A) (A) (A) (A) (A) (A) (A) (A) (A) (A)
                 (A) (A) (A) (A) (A) (A) (A) (A) (A) (A) (A) (A)
                 (A) (A) (A) (A) (A) (A) (A) (A) (A) (A) (A) (A)
                 (A) (A) (A) (A) (A) (A) (A) (A) (A) (A) (A) (A)
                 (A) (A) (A) (A) (A) (A) (A) (A) (A) (A) (A) (A)
                 (A) (A) (A) (A) (A) (A) (A) (A) (A) (A) (A) (A)
                 (A) (A) (A) (A) (A) (A) (A) (A) (A) (A) (A) (A)
                 (A) (A) (A) (A) (A) (A) (A) (A) (A) (A) (A) (A)
                 (A) (A) (A) (A) (A) (A) (A) (A) (A) (A) (A) (A)
                 (A) (A) (A) (A) (A) (A) (A) (A) (A) (A) (A) (A)
                 (A) (A) (A) (A) (A) (A) (A) (A) (A) (A) (A) (A)
                 (A) (A) (A) (A) (A) (A) (A) (A) (A) (A) (A) (A)
                 (A) (A) (A) (A) (A) (A) (A) (A) (A) (A) (A) (A)
                 (A) (A) (A) (A) (A) (A) (A) (A) (A) (A) (A) (A)
                 (A) (A) (A) (A) (A) (A) (A) (A) (A) (A) (A) (A)
                 (A) (A) (A) (A) (A) (A) (A) (A) (A) (A) (A) (A)
                 (A) (A) (A) (A) (A) (A) (A) (A) (A) (A) (A) (A)
                 (A) (A) (A) (A) (A) (A) (A) (A) (A) (A) (A) (A)
                 (A) (A) (A) (A) (A) (A) (A) (A) (A) (A) (A) (A)
                 (A) (A) (A) (A) (A) (A) (A) (A) (A) (A) (A) (A)
                 (A) (A) (A) (A) (A) (A) (A) (A) (A) (A) (A) (A)
                 (A) (A) (A) (A) (A) (A) (A) (A) (A) (A) (A) (A)
                 (A) (A) (A) (A) (A) (A) (A) (A) (A) (A) (A) (A)
                 (A) (A) (A) (A) (A) (A) (A) (A) (A) (A) (A) (A)
                 (A) (A) (A) (A) (A) (A) (A) (A) (A) (A) (A) (A)
                 (A) (A) (A) (A) (A) (A) (A) (A) (A) (A) (A) (A)
                 (A) (A) (A) (A) (A) (A) (A) (A) (A) (A) (A) (A)
                 (A) (A) (A) (A) (A) (A) (A) (A) (A) (A) (A) (A)
                 (A) (A) (A) (A) (A) (A) (A) (A)
 The electronic state is 2-A.
 Alpha  occ. eigenvalues --  -89.92517 -89.92347 -25.18981 -25.18967 -19.60212
 Alpha  occ. eigenvalues --  -14.76724 -14.76281 -10.61126 -10.58422 -10.57848
 Alpha  occ. eigenvalues --  -10.57691 -10.57565 -10.57465 -10.57359 -10.57120
 Alpha  occ. eigenvalues --  -10.57023 -10.56022 -10.55792 -10.54797 -10.54792
 Alpha  occ. eigenvalues --  -10.54769 -10.54722 -10.54716 -10.54692 -10.54646
 Alpha  occ. eigenvalues --  -10.54218 -10.54215 -10.54163 -10.53947 -10.53833
 Alpha  occ. eigenvalues --  -10.53830 -10.53304 -10.53040 -10.52898 -10.52855
 Alpha  occ. eigenvalues --  -10.52681 -10.52598  -8.28268  -8.28068  -7.11476
 Alpha  occ. eigenvalues --   -6.20176  -6.19998  -6.19978  -6.19851  -6.19797
 Alpha  occ. eigenvalues --   -6.19654  -1.30760  -1.27647  -1.13452  -1.08420
 Alpha  occ. eigenvalues --   -1.06434  -0.97821  -0.97603  -0.96854  -0.91329
 Alpha  occ. eigenvalues --   -0.89645  -0.88846  -0.88321  -0.87968  -0.84906
 Alpha  occ. eigenvalues --   -0.84479  -0.84039  -0.81630  -0.81434  -0.80540
 Alpha  occ. eigenvalues --   -0.80294  -0.79367  -0.76059  -0.75128  -0.72733
 Alpha  occ. eigenvalues --   -0.71277  -0.70365  -0.69172  -0.67829  -0.66243
 Alpha  occ. eigenvalues --   -0.66031  -0.64387  -0.62288  -0.61648  -0.60601
 Alpha  occ. eigenvalues --   -0.60502  -0.59387  -0.59236  -0.58459  -0.57481
 Alpha  occ. eigenvalues --   -0.56918  -0.56894  -0.55219  -0.53981  -0.53171
 Alpha  occ. eigenvalues --   -0.52752  -0.52509  -0.51727  -0.51057  -0.50950
 Alpha  occ. eigenvalues --   -0.50448  -0.50360  -0.50192  -0.49789  -0.49110
 Alpha  occ. eigenvalues --   -0.48843  -0.48577  -0.48230  -0.47896  -0.46791
 Alpha  occ. eigenvalues --   -0.46736  -0.46466  -0.45736  -0.45657  -0.45409
 Alpha  occ. eigenvalues --   -0.45220  -0.45194  -0.45037  -0.44711  -0.44501
 Alpha  occ. eigenvalues --   -0.44210  -0.43657  -0.43439  -0.42646  -0.42408
 Alpha  occ. eigenvalues --   -0.41954  -0.41802  -0.41305  -0.41056  -0.40778
 Alpha  occ. eigenvalues --   -0.40490  -0.40445  -0.40006  -0.38992  -0.38567
 Alpha  occ. eigenvalues --   -0.38112  -0.35267  -0.32556  -0.31550  -0.30870
 Alpha  occ. eigenvalues --   -0.30489  -0.30325  -0.30295  -0.30157  -0.29531
 Alpha  occ. eigenvalues --   -0.27916  -0.24709  -0.18672
 Alpha virt. eigenvalues --   -0.00922   0.00115   0.00757   0.01450   0.02469
 Alpha virt. eigenvalues --    0.04876   0.05342   0.06127   0.06742   0.07215
 Alpha virt. eigenvalues --    0.07669   0.08037   0.08430   0.09000   0.09203
 Alpha virt. eigenvalues --    0.09457   0.09541   0.10054   0.10251   0.10517
 Alpha virt. eigenvalues --    0.10992   0.11310   0.11502   0.11669   0.12094
 Alpha virt. eigenvalues --    0.12384   0.12832   0.13251   0.13642   0.13668
 Alpha virt. eigenvalues --    0.13975   0.14203   0.14528   0.14709   0.15041
 Alpha virt. eigenvalues --    0.15383   0.15540   0.15674   0.15867   0.16228
 Alpha virt. eigenvalues --    0.16689   0.17166   0.17246   0.17982   0.18303
 Alpha virt. eigenvalues --    0.18631   0.18869   0.19084   0.19402   0.19451
 Alpha virt. eigenvalues --    0.19813   0.20097   0.20319   0.20815   0.21208
 Alpha virt. eigenvalues --    0.21484   0.21638   0.21996   0.22253   0.22517
 Alpha virt. eigenvalues --    0.22638   0.23040   0.23151   0.23723   0.23813
 Alpha virt. eigenvalues --    0.23955   0.24150   0.24663   0.24921   0.25349
 Alpha virt. eigenvalues --    0.25497   0.25926   0.26254   0.26575   0.26811
 Alpha virt. eigenvalues --    0.26907   0.27164   0.27402   0.27499   0.27742
 Alpha virt. eigenvalues --    0.27930   0.28034   0.28317   0.28539   0.28726
 Alpha virt. eigenvalues --    0.29277   0.29512   0.29802   0.30333   0.30479
 Alpha virt. eigenvalues --    0.30750   0.31084   0.31452   0.31604   0.31672
 Alpha virt. eigenvalues --    0.32216   0.32755   0.32881   0.32937   0.33678
 Alpha virt. eigenvalues --    0.33882   0.34185   0.34576   0.34875   0.35039
 Alpha virt. eigenvalues --    0.35569   0.35810   0.36181   0.36357   0.36578
 Alpha virt. eigenvalues --    0.36813   0.36995   0.37365   0.37964   0.38178
 Alpha virt. eigenvalues --    0.38525   0.38823   0.38914   0.39004   0.39363
 Alpha virt. eigenvalues --    0.39702   0.40233   0.40391   0.40758   0.40774
 Alpha virt. eigenvalues --    0.41028   0.41329   0.41571   0.41967   0.42105
 Alpha virt. eigenvalues --    0.42208   0.42453   0.42938   0.43166   0.43264
 Alpha virt. eigenvalues --    0.43467   0.43476   0.43720   0.43915   0.44081
 Alpha virt. eigenvalues --    0.44601   0.44741   0.45102   0.45118   0.45434
 Alpha virt. eigenvalues --    0.45643   0.45774   0.46012   0.46073   0.46217
 Alpha virt. eigenvalues --    0.46554   0.46681   0.46987   0.47158   0.47334
 Alpha virt. eigenvalues --    0.47587   0.47778   0.47892   0.48334   0.48721
 Alpha virt. eigenvalues --    0.48941   0.49168   0.49326   0.49483   0.49547
 Alpha virt. eigenvalues --    0.49869   0.50180   0.50226   0.50911   0.51023
 Alpha virt. eigenvalues --    0.51336   0.51453   0.51944   0.52085   0.52318
 Alpha virt. eigenvalues --    0.52500   0.52584   0.52927   0.53229   0.53566
 Alpha virt. eigenvalues --    0.53862   0.54207   0.54425   0.55066   0.55280
 Alpha virt. eigenvalues --    0.55481   0.55811   0.56049   0.56149   0.56276
 Alpha virt. eigenvalues --    0.56701   0.57018   0.57217   0.57643   0.58043
 Alpha virt. eigenvalues --    0.58310   0.58452   0.58668   0.58987   0.59840
 Alpha virt. eigenvalues --    0.60227   0.60397   0.60839   0.61167   0.61621
 Alpha virt. eigenvalues --    0.61735   0.62081   0.62724   0.62807   0.62855
 Alpha virt. eigenvalues --    0.63354   0.63596   0.64096   0.64557   0.65048
 Alpha virt. eigenvalues --    0.65376   0.65503   0.66062   0.66491   0.66914
 Alpha virt. eigenvalues --    0.67254   0.67440   0.67650   0.67682   0.68098
 Alpha virt. eigenvalues --    0.68328   0.68900   0.68993   0.69290   0.69635
 Alpha virt. eigenvalues --    0.69874   0.70457   0.70559   0.71097   0.71331
 Alpha virt. eigenvalues --    0.71482   0.71786   0.72201   0.72341   0.72919
 Alpha virt. eigenvalues --    0.73158   0.73573   0.73746   0.74120   0.74214
 Alpha virt. eigenvalues --    0.74728   0.75075   0.75452   0.75925   0.76329
 Alpha virt. eigenvalues --    0.76370   0.76778   0.77762   0.77931   0.78432
 Alpha virt. eigenvalues --    0.78952   0.79473   0.79513   0.80426   0.80507
 Alpha virt. eigenvalues --    0.81014   0.81219   0.81940   0.82044   0.82219
 Alpha virt. eigenvalues --    0.82585   0.82751   0.82938   0.83471   0.84169
 Alpha virt. eigenvalues --    0.84322   0.84954   0.85052   0.85902   0.86150
 Alpha virt. eigenvalues --    0.86389   0.86575   0.87105   0.87269   0.87636
 Alpha virt. eigenvalues --    0.88359   0.88524   0.88854   0.89319   0.90006
 Alpha virt. eigenvalues --    0.90183   0.90552   0.91216   0.91287   0.92001
 Alpha virt. eigenvalues --    0.92386   0.92556   0.92796   0.93078   0.93579
 Alpha virt. eigenvalues --    0.93711   0.93778   0.94442   0.94679   0.94964
 Alpha virt. eigenvalues --    0.95498   0.95768   0.95935   0.96770   0.96941
 Alpha virt. eigenvalues --    0.97284   0.97539   0.98021   0.98132   0.98717
 Alpha virt. eigenvalues --    0.98863   0.99056   0.99379   0.99599   0.99673
 Alpha virt. eigenvalues --    1.00189   1.00667   1.01007   1.01299   1.01517
 Alpha virt. eigenvalues --    1.01598   1.01747   1.02070   1.02455   1.02925
 Alpha virt. eigenvalues --    1.03178   1.03738   1.04069   1.04134   1.04603
 Alpha virt. eigenvalues --    1.04709   1.05328   1.05526   1.05728   1.05884
 Alpha virt. eigenvalues --    1.06384   1.06849   1.07319   1.07716   1.08124
 Alpha virt. eigenvalues --    1.08235   1.08986   1.09271   1.09657   1.09934
 Alpha virt. eigenvalues --    1.10239   1.10688   1.10896   1.11377   1.11600
 Alpha virt. eigenvalues --    1.12028   1.12578   1.13207   1.13421   1.13754
 Alpha virt. eigenvalues --    1.14190   1.14283   1.14445   1.14595   1.14797
 Alpha virt. eigenvalues --    1.15354   1.15713   1.16024   1.16233   1.16300
 Alpha virt. eigenvalues --    1.16673   1.17386   1.17464   1.18003   1.18559
 Alpha virt. eigenvalues --    1.19100   1.19495   1.19704   1.20381   1.20692
 Alpha virt. eigenvalues --    1.21021   1.21271   1.21405   1.21532   1.22250
 Alpha virt. eigenvalues --    1.22444   1.22715   1.23088   1.23215   1.23878
 Alpha virt. eigenvalues --    1.24035   1.24728   1.24847   1.25070   1.25405
 Alpha virt. eigenvalues --    1.25799   1.26481   1.26771   1.27212   1.27491
 Alpha virt. eigenvalues --    1.27740   1.28381   1.28564   1.29107   1.29442
 Alpha virt. eigenvalues --    1.29609   1.30598   1.30603   1.31134   1.31557
 Alpha virt. eigenvalues --    1.31937   1.32339   1.32735   1.33522   1.33589
 Alpha virt. eigenvalues --    1.33995   1.34195   1.34479   1.34950   1.35252
 Alpha virt. eigenvalues --    1.35699   1.36013   1.36054   1.36693   1.37479
 Alpha virt. eigenvalues --    1.37937   1.38249   1.38761   1.39047   1.39195
 Alpha virt. eigenvalues --    1.39771   1.40349   1.40440   1.40936   1.41400
 Alpha virt. eigenvalues --    1.41563   1.41719   1.42426   1.43465   1.43870
 Alpha virt. eigenvalues --    1.44112   1.44470   1.44729   1.44773   1.45233
 Alpha virt. eigenvalues --    1.45577   1.45640   1.45848   1.46282   1.46484
 Alpha virt. eigenvalues --    1.46769   1.47036   1.47383   1.47530   1.47744
 Alpha virt. eigenvalues --    1.48440   1.48522   1.49330   1.49440   1.49823
 Alpha virt. eigenvalues --    1.50006   1.50170   1.50469   1.50800   1.51176
 Alpha virt. eigenvalues --    1.51346   1.51478   1.51704   1.52306   1.52577
 Alpha virt. eigenvalues --    1.53024   1.53261   1.53334   1.53513   1.54126
 Alpha virt. eigenvalues --    1.54448   1.54870   1.55182   1.55325   1.55436
 Alpha virt. eigenvalues --    1.55698   1.56197   1.56726   1.56973   1.57273
 Alpha virt. eigenvalues --    1.57564   1.58124   1.58398   1.58999   1.59216
 Alpha virt. eigenvalues --    1.59541   1.59853   1.60110   1.60415   1.60785
 Alpha virt. eigenvalues --    1.61138   1.61736   1.61845   1.62166   1.62367
 Alpha virt. eigenvalues --    1.62719   1.62966   1.63436   1.63975   1.64192
 Alpha virt. eigenvalues --    1.64303   1.64607   1.65413   1.65567   1.65841
 Alpha virt. eigenvalues --    1.66019   1.66570   1.66999   1.67357   1.67908
 Alpha virt. eigenvalues --    1.68203   1.68760   1.68820   1.69469   1.69916
 Alpha virt. eigenvalues --    1.70453   1.70851   1.71146   1.72185   1.72743
 Alpha virt. eigenvalues --    1.73191   1.74156   1.74653   1.74954   1.75604
 Alpha virt. eigenvalues --    1.76034   1.76087   1.76648   1.77107   1.77575
 Alpha virt. eigenvalues --    1.78062   1.78244   1.78536   1.79448   1.80384
 Alpha virt. eigenvalues --    1.80803   1.81379   1.82076   1.82581   1.82664
 Alpha virt. eigenvalues --    1.83689   1.83820   1.84875   1.85158   1.85281
 Alpha virt. eigenvalues --    1.85668   1.85919   1.86586   1.87009   1.87654
 Alpha virt. eigenvalues --    1.88207   1.88711   1.89177   1.89511   1.90003
 Alpha virt. eigenvalues --    1.90584   1.91655   1.91895   1.92338   1.92587
 Alpha virt. eigenvalues --    1.93090   1.93884   1.93991   1.94394   1.95002
 Alpha virt. eigenvalues --    1.95225   1.95826   1.96390   1.96818   1.97797
 Alpha virt. eigenvalues --    1.97894   1.98194   1.99131   1.99759   2.00071
 Alpha virt. eigenvalues --    2.00551   2.00889   2.01496   2.01690   2.02093
 Alpha virt. eigenvalues --    2.02765   2.03380   2.03875   2.04255   2.04780
 Alpha virt. eigenvalues --    2.05430   2.05795   2.06389   2.06579   2.07367
 Alpha virt. eigenvalues --    2.07719   2.08845   2.09245   2.09791   2.10073
 Alpha virt. eigenvalues --    2.10223   2.11336   2.12481   2.12767   2.12975
 Alpha virt. eigenvalues --    2.13280   2.14369   2.15131   2.15384   2.16408
 Alpha virt. eigenvalues --    2.16467   2.17109   2.17421   2.17920   2.18282
 Alpha virt. eigenvalues --    2.19110   2.19561   2.19863   2.20234   2.20331
 Alpha virt. eigenvalues --    2.21035   2.21889   2.22092   2.22561   2.23200
 Alpha virt. eigenvalues --    2.24132   2.24332   2.24937   2.25763   2.26420
 Alpha virt. eigenvalues --    2.26879   2.28233   2.28627   2.29219   2.29716
 Alpha virt. eigenvalues --    2.30756   2.31164   2.32204   2.32747   2.33579
 Alpha virt. eigenvalues --    2.34593   2.35281   2.35571   2.36486   2.36692
 Alpha virt. eigenvalues --    2.37063   2.37393   2.38106   2.38232   2.38862
 Alpha virt. eigenvalues --    2.39319   2.40061   2.41106   2.41383   2.42123
 Alpha virt. eigenvalues --    2.42661   2.42865   2.43493   2.45023   2.45106
 Alpha virt. eigenvalues --    2.45396   2.45849   2.47292   2.48202   2.48900
 Alpha virt. eigenvalues --    2.49197   2.49915   2.50963   2.51311   2.52085
 Alpha virt. eigenvalues --    2.52546   2.53158   2.53573   2.53821   2.54303
 Alpha virt. eigenvalues --    2.54803   2.55547   2.56268   2.56689   2.56734
 Alpha virt. eigenvalues --    2.57021   2.57375   2.57926   2.58445   2.58952
 Alpha virt. eigenvalues --    2.59132   2.59720   2.60272   2.61032   2.61399
 Alpha virt. eigenvalues --    2.61955   2.62248   2.62305   2.63120   2.64422
 Alpha virt. eigenvalues --    2.65563   2.66029   2.66290   2.66832   2.67830
 Alpha virt. eigenvalues --    2.68033   2.68578   2.69107   2.70055   2.70525
 Alpha virt. eigenvalues --    2.70966   2.71191   2.71386   2.71620   2.72823
 Alpha virt. eigenvalues --    2.73163   2.73564   2.73675   2.73967   2.74700
 Alpha virt. eigenvalues --    2.75589   2.75612   2.75928   2.76228   2.77053
 Alpha virt. eigenvalues --    2.77796   2.78218   2.78366   2.78881   2.79157
 Alpha virt. eigenvalues --    2.79439   2.79672   2.80726   2.81006   2.81438
 Alpha virt. eigenvalues --    2.81897   2.82039   2.82480   2.83100   2.83202
 Alpha virt. eigenvalues --    2.83579   2.84220   2.84508   2.84711   2.84912
 Alpha virt. eigenvalues --    2.85288   2.85350   2.85833   2.86044   2.86911
 Alpha virt. eigenvalues --    2.87263   2.87646   2.88149   2.88917   2.89107
 Alpha virt. eigenvalues --    2.89655   2.90269   2.90619   2.90908   2.91044
 Alpha virt. eigenvalues --    2.91270   2.91838   2.92235   2.92277   2.92966
 Alpha virt. eigenvalues --    2.93623   2.93985   2.94272   2.94559   2.94708
 Alpha virt. eigenvalues --    2.95115   2.95515   2.95947   2.96233   2.96836
 Alpha virt. eigenvalues --    2.97049   2.97172   2.97911   2.98251   2.98646
 Alpha virt. eigenvalues --    2.99036   2.99459   2.99639   3.00256   3.00439
 Alpha virt. eigenvalues --    3.00714   3.01244   3.01716   3.01898   3.02115
 Alpha virt. eigenvalues --    3.02330   3.02561   3.02796   3.03348   3.03565
 Alpha virt. eigenvalues --    3.03833   3.04109   3.04646   3.04809   3.05068
 Alpha virt. eigenvalues --    3.05125   3.05317   3.05950   3.06070   3.06325
 Alpha virt. eigenvalues --    3.06642   3.06783   3.07148   3.07478   3.07845
 Alpha virt. eigenvalues --    3.08280   3.08707   3.08857   3.09134   3.09408
 Alpha virt. eigenvalues --    3.09750   3.09916   3.10327   3.10549   3.10716
 Alpha virt. eigenvalues --    3.11191   3.11495   3.11732   3.11884   3.12350
 Alpha virt. eigenvalues --    3.12644   3.13079   3.13221   3.13538   3.13730
 Alpha virt. eigenvalues --    3.13893   3.14400   3.14483   3.14997   3.15190
 Alpha virt. eigenvalues --    3.15251   3.15852   3.16165   3.16505   3.17044
 Alpha virt. eigenvalues --    3.17340   3.17399   3.17658   3.18011   3.18103
[...]
 --------------------------------------------------------


 ---------------------------------------------------------------------------------
              Anisotropic Spin Dipole Couplings in Principal Axis System
 ---------------------------------------------------------------------------------

       Atom             a.u.   MegaHertz   Gauss  10(-4) cm-1        Axes

              Baa    -0.0004    -0.059    -0.021    -0.020  0.5302 -0.5656  0.6317
     1 C(13)  Bbb    -0.0002    -0.022    -0.008    -0.007  0.2019  0.8078  0.5538
              Bcc     0.0006     0.081     0.029     0.027  0.8235  0.1661 -0.5425
 
              Baa    -0.0006    -0.076    -0.027    -0.025  0.4193 -0.4596  0.7829
     2 C(13)  Bbb    -0.0004    -0.056    -0.020    -0.019 -0.4233  0.6639  0.6165
              Bcc     0.0010     0.132     0.047     0.044  0.8031  0.5899 -0.0838
 
              Baa    -0.0045    -0.601    -0.215    -0.201  0.1006 -0.6161  0.7812
     3 C(13)  Bbb    -0.0033    -0.437    -0.156    -0.146  0.9949  0.0522 -0.0869
              Bcc     0.0077     1.039     0.371     0.346  0.0128  0.7859  0.6182
 
              Baa    -0.0030    -0.407    -0.145    -0.136 -0.3910  0.8077  0.4414
     4 C(13)  Bbb     0.0007     0.090     0.032     0.030  0.1106 -0.4348  0.8937
              Bcc     0.0024     0.317     0.113     0.106  0.9137  0.3982  0.0807
 
              Baa    -0.0067    -0.904    -0.323    -0.302 -0.3212 -0.3604  0.8758
     5 C(13)  Bbb    -0.0039    -0.528    -0.188    -0.176  0.6349  0.6042  0.4815
              Bcc     0.0107     1.432     0.511     0.478 -0.7027  0.7107  0.0348
 
              Baa    -0.0065    -0.877    -0.313    -0.293 -0.3785  0.6727  0.6358
     6 C(13)  Bbb     0.0006     0.084     0.030     0.028 -0.0124 -0.6905  0.7232
              Bcc     0.0059     0.794     0.283     0.265  0.9255  0.2658  0.2697
 
              Baa    -0.0466    -6.254    -2.232    -2.086  0.7706  0.6217  0.1404
     7 C(13)  Bbb    -0.0449    -6.026    -2.150    -2.010 -0.6202  0.7822 -0.0599
              Bcc     0.0915    12.280     4.382     4.096 -0.1471 -0.0410  0.9883
 
              Baa    -0.0079    -1.064    -0.380    -0.355  0.6234  0.7793 -0.0638
     8 C(13)  Bbb    -0.0021    -0.280    -0.100    -0.094  0.7818 -0.6227  0.0329
              Bcc     0.0100     1.344     0.480     0.448  0.0141  0.0704  0.9974
 
              Baa    -0.0016    -0.221    -0.079    -0.074 -0.4619 -0.0628  0.8847
     9 C(13)  Bbb    -0.0001    -0.019    -0.007    -0.006  0.8861  0.0118  0.4634
              Bcc     0.0018     0.240     0.086     0.080 -0.0396  0.9980  0.0502
 
              Baa    -0.0639    -8.577    -3.060    -2.861  0.5265  0.8463  0.0807
    10 C(13)  Bbb    -0.0612    -8.218    -2.933    -2.741  0.8204 -0.5307  0.2128
              Bcc     0.1252    16.795     5.993     5.602 -0.2230  0.0458  0.9737
 
              Baa    -0.0127    -1.705    -0.608    -0.569  0.6699  0.5477  0.5013
    11 C(13)  Bbb    -0.0000    -0.001    -0.000    -0.000 -0.4787  0.8347 -0.2722
              Bcc     0.0127     1.706     0.609     0.569 -0.5675 -0.0577  0.8213
 
              Baa    -0.1606    11.617     4.145     3.875 -0.4027  0.9143 -0.0427
    12 O(17)  Bbb    -0.1512    10.943     3.905     3.650  0.8578  0.3932  0.3309
              Bcc     0.3118   -22.561    -8.050    -7.525 -0.3194 -0.0967  0.9427
 
              Baa    -0.0986   -13.233    -4.722    -4.414 -0.1576 -0.0038  0.9875
    13 C(13)  Bbb     0.0417     5.591     1.995     1.865  0.8422 -0.5226  0.1324
              Bcc     0.0569     7.642     2.727     2.549  0.5156  0.8526  0.0856
 
              Baa    -0.2480   -33.284   -11.877   -11.102 -0.5514  0.8335  0.0358
    14 C(13)  Bbb    -0.2453   -32.914   -11.745   -10.979  0.8339  0.5493  0.0543
              Bcc     0.4933    66.198    23.621    22.081 -0.0256 -0.0599  0.9979
 
              Baa    -0.0163    -2.192    -0.782    -0.731 -0.1077  0.8803 -0.4620
    15 C(13)  Bbb     0.0077     1.031     0.368     0.344 -0.5428  0.3372  0.7692
              Bcc     0.0087     1.161     0.414     0.387  0.8329  0.3336  0.4415
 
              Baa    -0.0170    -2.284    -0.815    -0.762 -0.5071  0.0349  0.8612
    16 C(13)  Bbb    -0.0099    -1.333    -0.476    -0.445  0.8101 -0.3219  0.4901
              Bcc     0.0270     3.617     1.290     1.206  0.2943  0.9461  0.1349
 
              Baa    -0.0090    -1.213    -0.433    -0.405 -0.1281  0.9009 -0.4147
    17 C(13)  Bbb     0.0018     0.248     0.089     0.083 -0.2359  0.3785  0.8950
              Bcc     0.0072     0.965     0.344     0.322  0.9633  0.2125  0.1641
 
              Baa    -0.0112    -1.503    -0.536    -0.501 -0.0678  0.4501  0.8904
    18 C(13)  Bbb    -0.0078    -1.041    -0.372    -0.347  0.9895  0.1446  0.0022
              Bcc     0.0190     2.544     0.908     0.849 -0.1278  0.8812 -0.4552
 
              Baa    -0.0093    -1.244    -0.444    -0.415 -0.1938  0.8937 -0.4047
    19 C(13)  Bbb     0.0013     0.177     0.063     0.059  0.0904  0.4270  0.8997
              Bcc     0.0080     1.067     0.381     0.356  0.9769  0.1377 -0.1635
 
              Baa    -0.0172    -2.313    -0.825    -0.772  0.4548  0.2347  0.8591
    20 C(13)  Bbb    -0.0100    -1.339    -0.478    -0.447  0.6635  0.5542 -0.5026
              Bcc     0.0272     3.652     1.303     1.218 -0.5941  0.7986  0.0963
 
              Baa    -0.0762   -10.221    -3.647    -3.409 -0.0474 -0.0348  0.9983
    21 C(13)  Bbb     0.0319     4.275     1.525     1.426  0.8153  0.5761  0.0588
              Bcc     0.0443     5.946     2.122     1.983 -0.5772  0.8166  0.0011
 
              Baa    -0.0947   -12.709    -4.535    -4.239  0.7954 -0.6045  0.0428
    22 C(13)  Bbb    -0.0907   -12.174    -4.344    -4.061  0.6039  0.7966  0.0289
              Bcc     0.1854    24.883     8.879     8.300 -0.0516  0.0029  0.9987
 
              Baa    -0.0371    -4.985    -1.779    -1.663 -0.0847 -0.0359  0.9958
    23 C(13)  Bbb     0.0173     2.315     0.826     0.772  0.8963 -0.4394  0.0603
              Bcc     0.0199     2.670     0.953     0.890  0.4353  0.8976  0.0694
 
              Baa    -0.0024    -0.325    -0.116    -0.108 -0.0418  0.0140  0.9990
    24 C(13)  Bbb    -0.0001    -0.016    -0.006    -0.005  0.9927 -0.1129  0.0432
              Bcc     0.0025     0.341     0.122     0.114  0.1134  0.9935 -0.0092
 
              Baa    -0.1129   -15.144    -5.404    -5.052 -0.3808  0.9244 -0.0203
    25 C(13)  Bbb    -0.1101   -14.770    -5.270    -4.927  0.9224  0.3814  0.0618
              Bcc     0.2229    29.915    10.674     9.978 -0.0649 -0.0049  0.9979
 
              Baa    -0.0350    -4.691    -1.674    -1.565  0.0720  0.5231  0.8492
    26 C(13)  Bbb     0.0124     1.659     0.592     0.553  0.3705  0.7765 -0.5097
              Bcc     0.0226     3.032     1.082     1.011  0.9260 -0.3513  0.1379
 
              Baa    -0.0296    -3.978    -1.419    -1.327 -0.4848 -0.6161  0.6208
    27 C(13)  Bbb    -0.0262    -3.514    -1.254    -1.172  0.8737 -0.3732  0.3119
              Bcc     0.0558     7.492     2.673     2.499  0.0396  0.6937  0.7192
 
              Baa    -0.0132    -1.773    -0.633    -0.592  0.2942  0.5955  0.7476
    28 C(13)  Bbb     0.0051     0.691     0.246     0.230 -0.1965  0.8032 -0.5625
              Bcc     0.0081     1.083     0.386     0.361  0.9353 -0.0186 -0.3533
 
              Baa    -0.0223    -2.990    -1.067    -0.997  0.2612  0.7555 -0.6008
    29 C(13)  Bbb    -0.0207    -2.784    -0.993    -0.929  0.9406 -0.3390 -0.0172
              Bcc     0.0430     5.774     2.060     1.926  0.2167  0.5607  0.7992
 
              Baa    -0.0009    -0.125    -0.045    -0.042 -0.0798  0.8114 -0.5790
    30 C(13)  Bbb    -0.0004    -0.053    -0.019    -0.018 -0.0591  0.5760  0.8153
              Bcc     0.0013     0.178     0.064     0.059  0.9951  0.0993  0.0020
 
              Baa    -0.0019    -0.255    -0.091    -0.085 -0.0245 -0.2633  0.9644
    31 C(13)  Bbb    -0.0012    -0.165    -0.059    -0.055  0.8069 -0.5747 -0.1364
              Bcc     0.0031     0.420     0.150     0.140  0.5902  0.7748  0.2265
 
              Baa    -0.0528    -2.165    -0.772    -0.722 -0.6312  0.7553 -0.1765
    32 S(33)  Bbb    -0.0445    -1.825    -0.651    -0.609 -0.3022 -0.0300  0.9528
              Bcc     0.0973     3.990     1.424     1.331  0.7143  0.6547  0.2472
 
              Baa    -0.0436    -1.682    -0.600    -0.561 -0.2332  0.9715 -0.0426
    33 N(14)  Bbb    -0.0330    -1.273    -0.454    -0.424  0.9647  0.2366  0.1156
              Bcc     0.0766     2.954     1.054     0.986 -0.1223  0.0142  0.9924
 
              Baa    -0.0034    -0.584    -0.208    -0.195  0.0010  0.2265  0.9740
    34 B(11)  Bbb     0.0004     0.064     0.023     0.021  0.8031  0.5801 -0.1357
              Bcc     0.0030     0.520     0.186     0.173 -0.5958  0.7824 -0.1813
 
              Baa    -0.0130    -6.539    -2.333    -2.181 -0.1765  0.9377  0.2994
    35 F(19)  Bbb    -0.0115    -5.780    -2.063    -1.928 -0.3471 -0.3439  0.8725
              Bcc     0.0245    12.319     4.396     4.109  0.9211  0.0501  0.3862
 
              Baa    -0.0173    -8.666    -3.092    -2.891  0.1691  0.8992  0.4035
    36 F(19)  Bbb    -0.0160    -8.044    -2.870    -2.683  0.1233 -0.4254  0.8965
              Bcc     0.0333    16.710     5.963     5.574  0.9779 -0.1018 -0.1828
 
              Baa    -0.1052    -4.057    -1.448    -1.353 -0.1947  0.9809 -0.0000
    37 N(14)  Bbb    -0.0989    -3.814    -1.361    -1.272  0.9553  0.1896  0.2267
              Bcc     0.2041     7.872     2.809     2.626 -0.2224 -0.0441  0.9740
 
              Baa    -0.0150    -0.617    -0.220    -0.206  0.8435 -0.5238 -0.1189
    38 S(33)  Bbb    -0.0112    -0.459    -0.164    -0.153  0.2727  0.2268  0.9350
              Bcc     0.0262     1.076     0.384     0.359  0.4628  0.8211 -0.3341
 
              Baa    -0.0003    -0.147    -0.053    -0.049 -0.5760  0.7890 -0.2137
    39 H(1)   Bbb    -0.0002    -0.121    -0.043    -0.040  0.2311  0.4080  0.8832
              Bcc     0.0005     0.268     0.096     0.089  0.7841  0.4594 -0.4174
 
              Baa    -0.0002    -0.109    -0.039    -0.036  0.3707 -0.1543  0.9159
    40 H(1)   Bbb    -0.0002    -0.090    -0.032    -0.030 -0.3981  0.8646  0.3068
              Bcc     0.0004     0.199     0.071     0.066  0.8391  0.4783 -0.2590
 
              Baa    -0.0003    -0.176    -0.063    -0.059  0.2811 -0.1005  0.9544
    41 H(1)   Bbb    -0.0001    -0.073    -0.026    -0.024 -0.2755  0.9442  0.1806
              Bcc     0.0005     0.249     0.089     0.083  0.9193  0.3136 -0.2377
 
              Baa    -0.0003    -0.167    -0.060    -0.056 -0.2525  0.2430  0.9366
    42 H(1)   Bbb    -0.0002    -0.127    -0.045    -0.042 -0.4385  0.8341 -0.3346
              Bcc     0.0006     0.294     0.105     0.098  0.8625  0.4952  0.1040
 
              Baa    -0.0003    -0.182    -0.065    -0.061 -0.1706  0.3123  0.9345
    43 H(1)   Bbb    -0.0002    -0.128    -0.046    -0.043  0.7026 -0.6264  0.3376
              Bcc     0.0006     0.311     0.111     0.104  0.6909  0.7141 -0.1126
 
              Baa    -0.0004    -0.219    -0.078    -0.073 -0.5084  0.7008  0.5003
    44 H(1)   Bbb    -0.0003    -0.150    -0.053    -0.050  0.0251 -0.5687  0.8222
              Bcc     0.0007     0.369     0.132     0.123  0.8607  0.4306  0.2716
 
              Baa    -0.0011    -0.585    -0.209    -0.195  0.6271 -0.4796 -0.6138
    45 H(1)   Bbb    -0.0001    -0.040    -0.014    -0.013  0.3100  0.8765 -0.3682
              Bcc     0.0012     0.625     0.223     0.209  0.7146  0.0406  0.6983
 
              Baa    -0.0017    -0.901    -0.321    -0.300 -0.3112 -0.2775  0.9089
    46 H(1)   Bbb    -0.0002    -0.125    -0.044    -0.042  0.9445 -0.1961  0.2635
              Bcc     0.0019     1.025     0.366     0.342  0.1052  0.9405  0.3231
 
              Baa    -0.0014    -0.747    -0.267    -0.249 -0.0651 -0.0945  0.9934
    47 H(1)   Bbb    -0.0010    -0.528    -0.188    -0.176  0.9873 -0.1507  0.0503
              Bcc     0.0024     1.275     0.455     0.425  0.1450  0.9841  0.1031
 
              Baa    -0.0016    -0.865    -0.309    -0.289 -0.1218  0.2475  0.9612
    48 H(1)   Bbb    -0.0003    -0.139    -0.050    -0.046  0.9808 -0.1185  0.1548
              Bcc     0.0019     1.005     0.358     0.335  0.1522  0.9616 -0.2283
 
              Baa    -0.0037    -1.981    -0.707    -0.661 -0.3559 -0.1542  0.9217
    49 H(1)   Bbb     0.0005     0.293     0.105     0.098 -0.0136  0.9870  0.1599
              Bcc     0.0032     1.688     0.602     0.563  0.9344 -0.0444  0.3534
 
              Baa    -0.0032    -1.709    -0.610    -0.570  0.2196  0.7599 -0.6119
    50 H(1)   Bbb    -0.0012    -0.633    -0.226    -0.211  0.8595 -0.4474 -0.2471
              Bcc     0.0044     2.342     0.836     0.781  0.4615  0.4716  0.7514
 
              Baa    -0.0010    -0.513    -0.183    -0.171 -0.1168  0.8950 -0.4305
    51 H(1)   Bbb    -0.0005    -0.293    -0.104    -0.098 -0.3552  0.3671  0.8597
              Bcc     0.0015     0.806     0.288     0.269  0.9275  0.2533  0.2750
 
              Baa    -0.0020    -1.044    -0.372    -0.348 -0.0468  0.3441  0.9378
    52 H(1)   Bbb    -0.0005    -0.276    -0.099    -0.092 -0.1432  0.9268 -0.3472
              Bcc     0.0025     1.320     0.471     0.440  0.9886  0.1506 -0.0059
 
              Baa    -0.0009    -0.506    -0.181    -0.169 -0.1737  0.8724 -0.4569
    53 H(1)   Bbb    -0.0006    -0.333    -0.119    -0.111  0.2452  0.4876  0.8379
              Bcc     0.0016     0.839     0.300     0.280  0.9538  0.0336 -0.2986
 
              Baa    -0.0033    -1.769    -0.631    -0.590 -0.4155  0.6570 -0.6291
    54 H(1)   Bbb    -0.0013    -0.699    -0.249    -0.233  0.7074  0.6681  0.2306
              Bcc     0.0046     2.468     0.881     0.823 -0.5718  0.3492  0.7424
 
              Baa    -0.0113    -6.055    -2.161    -2.020 -0.4354  0.8980 -0.0644
    55 H(1)   Bbb    -0.0026    -1.394    -0.497    -0.465 -0.0606  0.0421  0.9973
              Bcc     0.0140     7.449     2.658     2.485  0.8982  0.4381  0.0361
 
              Baa    -0.0016    -0.838    -0.299    -0.280 -0.0487  0.1912  0.9803
    56 H(1)   Bbb    -0.0005    -0.261    -0.093    -0.087  0.9952 -0.0738  0.0638
              Bcc     0.0021     1.100     0.392     0.367  0.0846  0.9788 -0.1867
 
              Baa    -0.0014    -0.769    -0.274    -0.256 -0.2114 -0.1106  0.9711
    57 H(1)   Bbb    -0.0009    -0.466    -0.166    -0.156  0.9773 -0.0383  0.2084
              Bcc     0.0023     1.235     0.441     0.412  0.0142  0.9931  0.1162
 
              Baa    -0.0017    -0.915    -0.327    -0.305 -0.4730 -0.1881  0.8608
    58 H(1)   Bbb    -0.0008    -0.451    -0.161    -0.151  0.8803 -0.0591  0.4708
              Bcc     0.0026     1.366     0.488     0.456 -0.0377  0.9804  0.1936
 
              Baa    -0.0021    -1.142    -0.407    -0.381 -0.1912  0.5321  0.8248
    59 H(1)   Bbb    -0.0017    -0.894    -0.319    -0.298  0.8986 -0.2431  0.3651
              Bcc     0.0038     2.035     0.726     0.679  0.3948  0.8110 -0.4317
 
              Baa    -0.0010    -0.551    -0.197    -0.184  0.2589  0.6204  0.7403
    60 H(1)   Bbb     0.0002     0.133     0.048     0.044  0.1751  0.7236 -0.6676
              Bcc     0.0008     0.418     0.149     0.139  0.9499 -0.3025 -0.0787
 
              Baa    -0.0007    -0.378    -0.135    -0.126 -0.1941 -0.6007  0.7756
    61 H(1)   Bbb    -0.0006    -0.313    -0.112    -0.104  0.2935  0.7188  0.6302
              Bcc     0.0013     0.691     0.246     0.230  0.9361 -0.3499 -0.0368
 
              Baa    -0.0007    -0.384    -0.137    -0.128  0.3810  0.7029  0.6006
    62 H(1)   Bbb    -0.0005    -0.265    -0.095    -0.088 -0.3596  0.7111 -0.6042
              Bcc     0.0012     0.649     0.232     0.216  0.8518 -0.0143 -0.5237
 
              Baa    -0.0005    -0.292    -0.104    -0.097 -0.0086  0.9195 -0.3929
    63 H(1)   Bbb    -0.0002    -0.116    -0.041    -0.039 -0.4957  0.3373  0.8003
              Bcc     0.0008     0.407     0.145     0.136  0.8685  0.2017  0.4529
 
              Baa    -0.0005    -0.244    -0.087    -0.081  0.0848 -0.2729  0.9583
    64 H(1)   Bbb    -0.0003    -0.149    -0.053    -0.050 -0.0462  0.9596  0.2774
              Bcc     0.0007     0.393     0.140     0.131  0.9953  0.0678 -0.0688
 
              Baa    -0.0007    -0.365    -0.130    -0.122 -0.0599  0.0946  0.9937
    65 H(1)   Bbb    -0.0000    -0.010    -0.003    -0.003 -0.3184  0.9417 -0.1088
              Bcc     0.0007     0.375     0.134     0.125  0.9461  0.3230  0.0263
 

 ---------------------------------------------------------------------------------

 No NMR shielding tensors so no spin-rotation constants.
 Leave Link  601 at Thu Nov  6 08:25:31 2025, MaxMem= 30870077440 cpu:             167.5 elap:               3.1
 (Enter /public/software/gauss/g16/l9999.exe)
 1\1\GINC-CU015\SP\UM062X\def2TZVPP\C30H27B1F2N2O1S2(1-,2)\BAIDING\06-N
 ov-2025\0\\#p M062X/DEF2TZVPP scrf=(solvent=water) em=GD3\\Energy calc
 ulation for M100033022_reduced\\-1,2\C,0,5.137553,-4.128629,1.424005\C
 ,0,4.461042,-4.697652,0.166842\C,0,3.271955,-3.90785,-0.30438\C,0,3.13
 2932,-3.192571,-1.46601\C,0,1.863215,-2.559398,-1.612136\C,0,1.00779,-
 2.78498,-0.562174\C,0,-0.362467,-2.311689,-0.346084\C,0,-1.504787,-3.0
 78053,-0.173852\C,0,-1.59051,-4.573464,-0.229466\C,0,-2.590035,-2.1674
 32,0.049559\C,0,-3.921593,-2.533958,0.430833\O,0,-4.363263,-3.701245,0
 .48137\C,0,-2.045834,-0.839178,-0.039541\C,0,-2.641141,0.446212,0.0738
 67\C,0,-4.115876,0.644609,0.085285\C,0,-4.76158,1.242306,1.181019\C,0,
 -6.142146,1.452696,1.170168\C,0,-6.90244,1.074436,0.061722\C,0,-6.2721
 16,0.485342,-1.038259\C,0,-4.89398,0.274036,-1.027189\C,0,-1.812949,1.
 598221,0.09249\C,0,-2.176749,2.961945,0.129148\C,0,-1.009089,3.727333,
 0.068139\C,0,-0.949859,5.226338,0.118391\C,0,0.07399,2.818523,-0.01302
 \C,0,1.475277,3.19141,-0.120039\C,0,1.961726,4.292686,-0.799655\C,0,3.
 357393,4.511818,-0.635984\C,0,3.969848,3.590715,0.174745\C,0,5.428521,
 3.485165,0.524188\C,0,6.157357,2.32242,-0.169703\S,0,2.807633,2.4138,0
 .746545\N,0,-0.428545,1.523083,0.017272\B,0,0.339316,0.208932,-0.2371\
 F,0,1.030814,0.299176,-1.459519\F,0,1.258909,-0.040724,0.801803\N,0,-0
 .690029,-0.955217,-0.265353\S,0,1.803044,-3.795457,0.643264\H,0,4.4561
 06,-4.131577,2.2811\H,0,6.01291,-4.72931,1.691378\H,0,5.467498,-3.0979
 12,1.259293\H,0,5.181983,-4.722833,-0.65771\H,0,4.168075,-5.73801,0.35
 6589\H,0,3.923147,-3.130124,-2.207263\H,0,1.58896,-1.947929,-2.462282\
 H,0,-2.349671,-4.90027,-0.947138\H,0,-0.633637,-5.010408,-0.523854\H,0
 ,-1.874149,-5.002483,0.738514\H,0,-4.585845,-1.708504,0.728752\H,0,-4.
 177068,1.532875,2.048681\H,0,-6.62282,1.909613,2.030425\H,0,-7.975894,
 1.238535,0.053387\H,0,-6.85393,0.195161,-1.908436\H,0,-4.409414,-0.181
 964,-1.885515\H,0,-3.185722,3.342035,0.202196\H,0,-0.89677,5.675637,-0
 .881058\H,0,-1.846457,5.62474,0.603127\H,0,-0.075563,5.581471,0.672877
 \H,0,1.330365,4.917826,-1.419246\H,0,3.897961,5.322204,-1.114342\H,0,5
 .901797,4.432032,0.24169\H,0,5.550571,3.38771,1.610123\H,0,6.084019,2.
 408667,-1.258564\H,0,7.217991,2.319703,0.102143\H,0,5.734083,1.355659,
 0.121269\\Version=ES64L-G16RevA.03\State=2-A\HF=-2365.4159665\S2=0.775
 859\S2-1=0.\S2A=0.750514\RMSD=3.193e-09\Dipole=2.3972831,2.3963534,-0.
 2746807\Quadrupole=4.783878,-8.8124292,4.0285512,-25.5158812,1.6369706
 ,2.2488713\PG=C01 [X(C30H27B1F2N2O1S2)]\\@


 THE GREAT THING ABOUT BEING IMPERFECT IS THE JOY IT BRINGS OTHERS.
   -- SIGN OUTSIDE LAKE AGASSIZ JR. HIGH SCHOOL, FARGO, N.D.
 Job cpu time:       1 days  2 hours 49 minutes 44.0 seconds.
 Elapsed time:       0 days  0 hours 25 minutes 29.0 seconds.
 File lengths (MBytes):  RWF=   2683 Int=      0 D2E=      0 Chk=    174 Scr=      1
 Normal termination of Gaussian 16 at Thu Nov  6 08:25:32 2025.
