 Entering Gaussian System, Link 0=g16
 Input=M100024798_reduced_sp.gjf
 Output=M100024798_reduced_sp.log
 Initial command:
 /public/software/gauss/g16/l1.exe "/public/home/baiding/1101_v2_sp/tmp_M100024798_reduced_sp_1568608/Gau-4112469.inp" -scrdir="/public/home/baiding/1101_v2_sp/tmp_M100024798_reduced_sp_1568608/"
 Entering Link 1 = /public/software/gauss/g16/l1.exe PID=   4112470.
  
 Copyright (c) 1988,1990,1992,1993,1995,1998,2003,2009,2016,
            Gaussian, Inc.  All Rights Reserved.
  
 This is part of the Gaussian(R) 16 program.  It is based on
 the Gaussian(R) 09 system (copyright 2009, Gaussian, Inc.),
 the Gaussian(R) 03 system (copyright 2003, Gaussian, Inc.),
 the Gaussian(R) 98 system (copyright 1998, Gaussian, Inc.),
 the Gaussian(R) 94 system (copyright 1995, Gaussian, Inc.),
 the Gaussian 92(TM) system (copyright 1992, Gaussian, Inc.),
 the Gaussian 90(TM) system (copyright 1990, Gaussian, Inc.),
 the Gaussian 88(TM) system (copyright 1988, Gaussian, Inc.),
 the Gaussian 86(TM) system (copyright 1986, Carnegie Mellon
 University), and the Gaussian 82(TM) system (copyright 1983,
 Carnegie Mellon University). Gaussian is a federally registered
 trademark of Gaussian, Inc.
  
 This software contains proprietary and confidential information,
 including trade secrets, belonging to Gaussian, Inc.
  
 This software is provided under written license and may be
 used, copied, transmitted, or stored only in accord with that
 written license.
  
 The following legend is applicable only to US Government
 contracts under FAR:
  
                    RESTRICTED RIGHTS LEGEND
  
 Use, reproduction and disclosure by the US Government is
 subject to restrictions as set forth in subparagraphs (a)
 and (c) of the Commercial Computer Software - Restricted
 Rights clause in FAR 52.227-19.
  
 Gaussian, Inc.
 340 Quinnipiac St., Bldg. 40, Wallingford CT 06492
  
  
 ---------------------------------------------------------------
 Warning -- This program may not be used in any manner that
 competes with the business of Gaussian, Inc. or will provide
 assistance to any competitor of Gaussian, Inc.  The licensee
 of this program is prohibited from giving any competitor of
 Gaussian, Inc. access to this program.  By using this program,
 the user acknowledges that Gaussian, Inc. is engaged in the
 business of creating and licensing software in the field of
 computational chemistry and represents and warrants to the
 licensee that it is not a competitor of Gaussian, Inc. and that
 it will not use this program in any manner prohibited above.
 ---------------------------------------------------------------
  

 Cite this work as:
 Gaussian 16, Revision A.03,
 M. J. Frisch, G. W. Trucks, H. B. Schlegel, G. E. Scuseria, 
 M. A. Robb, J. R. Cheeseman, G. Scalmani, V. Barone, 
 G. A. Petersson, H. Nakatsuji, X. Li, M. Caricato, A. V. Marenich, 
 J. Bloino, B. G. Janesko, R. Gomperts, B. Mennucci, H. P. Hratchian, 
 J. V. Ortiz, A. F. Izmaylov, J. L. Sonnenberg, D. Williams-Young, 
 F. Ding, F. Lipparini, F. Egidi, J. Goings, B. Peng, A. Petrone, 
 T. Henderson, D. Ranasinghe, V. G. Zakrzewski, J. Gao, N. Rega, 
 G. Zheng, W. Liang, M. Hada, M. Ehara, K. Toyota, R. Fukuda, 
 J. Hasegawa, M. Ishida, T. Nakajima, Y. Honda, O. Kitao, H. Nakai, 
 T. Vreven, K. Throssell, J. A. Montgomery, Jr., J. E. Peralta, 
 F. Ogliaro, M. J. Bearpark, J. J. Heyd, E. N. Brothers, K. N. Kudin, 
 V. N. Staroverov, T. A. Keith, R. Kobayashi, J. Normand, 
 K. Raghavachari, A. P. Rendell, J. C. Burant, S. S. Iyengar, 
 J. Tomasi, M. Cossi, J. M. Millam, M. Klene, C. Adamo, R. Cammi, 
 J. W. Ochterski, R. L. Martin, K. Morokuma, O. Farkas, 
 J. B. Foresman, and D. J. Fox, Gaussian, Inc., Wallingford CT, 2016.
 
 ******************************************
 Gaussian 16:  ES64L-G16RevA.03 25-Dec-2016
                 6-Nov-2025 
 ******************************************
 %nprocshared=64
 Will use up to   64 processors via shared memory.
 %mem=230GB
 %chk=M100024798_reduced_sp.chk
 ----------------------------------------------
 #p M062X/DEF2TZVPP scrf=(solvent=water) em=GD3
 ----------------------------------------------
 1/38=1,172=1/1;
 2/12=2,17=6,18=5,40=1/2;
 3/5=44,7=202,11=2,25=1,30=1,70=2201,72=1,74=-55,124=31/1,2,3;
 4//1;
 5/5=2,38=5,53=1/2;
 6/7=2,8=2,9=2,10=2,28=1/1;
 99/5=1,9=1/99;
 Leave Link    1 at Thu Nov  6 02:24:22 2025, MaxMem= 30870077440 cpu:               9.7 elap:               0.2
 (Enter /public/software/gauss/g16/l101.exe)
 -----------------------------------------
 Energy calculation for M100024798_reduced
 -----------------------------------------
 Symbolic Z-matrix:
 Charge = -1 Multiplicity = 2
 C                    -1.45659   5.5561    0.76162 
 C                    -1.5025    4.80385  -0.58026 
 C                    -1.54636   3.30623  -0.42957 
 C                    -2.7035    2.52061  -0.45972 
 C                    -4.0894    3.03861  -0.71915 
 C                    -2.29982   1.16153  -0.2353 
 C                    -3.04672  -0.04323  -0.15362 
 C                    -4.53378  -0.00316  -0.18307 
 C                    -5.24173  -0.51272  -1.28578 
 C                    -6.632    -0.47399  -1.31416 
 C                    -7.34661   0.06696  -0.23401 
 C                    -8.81299   0.09084  -0.28277 
 O                    -9.53776   0.5323    0.6068 
 C                    -6.64656   0.57403   0.87526 
 C                    -5.25978   0.54279   0.89544 
 C                    -2.37572  -1.28675  -0.02225 
 C                    -2.88611  -2.59675   0.2634 
 C                    -4.30795  -3.01313   0.51553 
 C                    -1.78906  -3.45607   0.31945 
 C                    -1.83001  -4.93452   0.60901 
 C                    -1.64155  -5.27088   2.09873 
 C                    -0.61154  -2.69012   0.07896 
 C                     0.69366  -3.26394   0.02361 
 C                     1.88932  -2.73955  -0.39404 
 C                     3.15457  -3.44003  -0.38912 
 C                     3.34516  -4.74298   0.15112 
 C                     4.58151  -5.35611   0.11953 
 C                     5.6986   -4.70353  -0.44795 
 C                     7.01014  -5.33242  -0.48659 
 O                     7.27699  -6.4558   -0.04613 
 C                     5.52723  -3.41136  -0.98112 
 C                     4.28753  -2.79606  -0.95051 
 N                    -0.98901  -1.36579  -0.11242 
 B                    -0.06139  -0.13735  -0.18615 
 F                     0.66226  -0.12236  -1.40558 
 F                     0.87055  -0.17169   0.87409 
 N                    -0.92477   1.13851  -0.09953 
 C                    -0.43797   2.43905  -0.19733 
 C                     0.95796   2.69013  -0.03596 
 C                     1.63888   3.87753  -0.10891 
 C                     3.06584   4.03265   0.07812 
 C                     3.95456   2.96194   0.36031 
 C                     5.30897   3.18805   0.52953 
 C                     5.84803   4.48669   0.42584 
 C                     7.27717   4.69193   0.60977 
 O                     7.85536   5.78181   0.54034 
 C                     4.97732   5.56015   0.14375 
 C                     3.62474   5.33594  -0.0248 
 H                    -0.57726   5.27554   1.34986 
 H                    -1.42267   6.63876   0.59908 
 H                    -2.34477   5.33187   1.36152 
 H                    -2.38776   5.13414  -1.13265 
 H                    -0.64625   5.09599  -1.19661 
 H                    -4.65265   2.38176  -1.38654 
 H                    -4.6793    3.14243   0.19865 
 H                    -4.04737   4.02527  -1.18742 
 H                    -4.69255  -0.93084  -2.12328 
 H                    -7.17318  -0.86055  -2.17381 
 H                    -9.25602  -0.32981  -1.206 
 H                    -7.20334   0.98467   1.71161 
 H                    -4.72048   0.93145   1.75347 
 H                    -4.89768  -3.08432  -0.40545 
 H                    -4.33485  -3.99383   0.99677 
 H                    -4.83007  -2.31182   1.17168 
 H                    -2.78695  -5.34327   0.26878 
 H                    -1.06142  -5.45121   0.02462 
 H                    -1.68211  -6.35327   2.26187 
 H                    -0.67523  -4.90916   2.46539 
 H                    -2.4236   -4.80728   2.70928 
 H                     0.69625  -4.30247   0.34218 
 H                     1.91898  -1.73503  -0.79605 
 H                     2.51095  -5.26669   0.60611 
 H                     4.71041  -6.35031   0.53663 
 H                     7.80529  -4.72112  -0.95704 
 H                     6.38049  -2.89869  -1.41845 
 H                     4.16876  -1.79878  -1.36474 
 H                     1.53646   1.80453   0.20039 
 H                     1.10968   4.79991  -0.31758 
 H                     3.57585   1.94894   0.44562 
 H                     5.97363   2.35519   0.74592 
 H                     7.85547   3.7727    0.8279 
 H                     5.38454   6.56331   0.06173 
 H                     2.96257   6.16974  -0.24168 
 
 ITRead=  0  0  0  0  0  0  0  0  0  0  0  0  0  0  0  0  0  0  0  0
 ITRead=  0  0  0  0  0  0  0  0  0  0  0  0  0  0  0  0  0  0  0  0
 ITRead=  0  0  0  0  0  0  0  0  0  0  0  0  0  0  0  0  0  0  0  0
 ITRead=  0  0  0  0  0  0  0  0  0  0  0  0  0  0  0  0  0  0  0  0
 ITRead=  0  0  0
 MicOpt= -1 -1 -1 -1 -1 -1 -1 -1 -1 -1 -1 -1 -1 -1 -1 -1 -1 -1 -1 -1
 MicOpt= -1 -1 -1 -1 -1 -1 -1 -1 -1 -1 -1 -1 -1 -1 -1 -1 -1 -1 -1 -1
 MicOpt= -1 -1 -1 -1 -1 -1 -1 -1 -1 -1 -1 -1 -1 -1 -1 -1 -1 -1 -1 -1
 MicOpt= -1 -1 -1 -1 -1 -1 -1 -1 -1 -1 -1 -1 -1 -1 -1 -1 -1 -1 -1 -1
 MicOpt= -1 -1 -1
 NAtoms=     83 NQM=       83 NQMF=       0 NMMI=      0 NMMIF=      0
                NMic=       0 NMicF=      0.
                    Isotopes and Nuclear Properties:
 (Nuclear quadrupole moments (NQMom) in fm**2, nuclear magnetic moments (NMagM)
  in nuclear magnetons)

  Atom         1           2           3           4           5           6           7           8           9          10
 IAtWgt=          12          12          12          12          12          12          12          12          12          12
 AtmWgt=  12.0000000  12.0000000  12.0000000  12.0000000  12.0000000  12.0000000  12.0000000  12.0000000  12.0000000  12.0000000
 NucSpn=           0           0           0           0           0           0           0           0           0           0
 AtZEff=  -0.0000000  -0.0000000  -0.0000000  -0.0000000  -0.0000000  -0.0000000  -0.0000000  -0.0000000  -0.0000000  -0.0000000
 NQMom=    0.0000000   0.0000000   0.0000000   0.0000000   0.0000000   0.0000000   0.0000000   0.0000000   0.0000000   0.0000000
 NMagM=    0.0000000   0.0000000   0.0000000   0.0000000   0.0000000   0.0000000   0.0000000   0.0000000   0.0000000   0.0000000
 AtZNuc=   6.0000000   6.0000000   6.0000000   6.0000000   6.0000000   6.0000000   6.0000000   6.0000000   6.0000000   6.0000000

  Atom        11          12          13          14          15          16          17          18          19          20
 IAtWgt=          12          12          16          12          12          12          12          12          12          12
 AtmWgt=  12.0000000  12.0000000  15.9949146  12.0000000  12.0000000  12.0000000  12.0000000  12.0000000  12.0000000  12.0000000
 NucSpn=           0           0           0           0           0           0           0           0           0           0
 AtZEff=  -0.0000000  -0.0000000  -0.0000000  -0.0000000  -0.0000000  -0.0000000  -0.0000000  -0.0000000  -0.0000000  -0.0000000
 NQMom=    0.0000000   0.0000000   0.0000000   0.0000000   0.0000000   0.0000000   0.0000000   0.0000000   0.0000000   0.0000000
 NMagM=    0.0000000   0.0000000   0.0000000   0.0000000   0.0000000   0.0000000   0.0000000   0.0000000   0.0000000   0.0000000
 AtZNuc=   6.0000000   6.0000000   8.0000000   6.0000000   6.0000000   6.0000000   6.0000000   6.0000000   6.0000000   6.0000000

  Atom        21          22          23          24          25          26          27          28          29          30
 IAtWgt=          12          12          12          12          12          12          12          12          12          16
 AtmWgt=  12.0000000  12.0000000  12.0000000  12.0000000  12.0000000  12.0000000  12.0000000  12.0000000  12.0000000  15.9949146
 NucSpn=           0           0           0           0           0           0           0           0           0           0
 AtZEff=  -0.0000000  -0.0000000  -0.0000000  -0.0000000  -0.0000000  -0.0000000  -0.0000000  -0.0000000  -0.0000000  -0.0000000
 NQMom=    0.0000000   0.0000000   0.0000000   0.0000000   0.0000000   0.0000000   0.0000000   0.0000000   0.0000000   0.0000000
 NMagM=    0.0000000   0.0000000   0.0000000   0.0000000   0.0000000   0.0000000   0.0000000   0.0000000   0.0000000   0.0000000
 AtZNuc=   6.0000000   6.0000000   6.0000000   6.0000000   6.0000000   6.0000000   6.0000000   6.0000000   6.0000000   8.0000000

  Atom        31          32          33          34          35          36          37          38          39          40
 IAtWgt=          12          12          14          11          19          19          14          12          12          12
 AtmWgt=  12.0000000  12.0000000  14.0030740  11.0093053  18.9984033  18.9984033  14.0030740  12.0000000  12.0000000  12.0000000
 NucSpn=           0           0           2           3           1           1           2           0           0           0
 AtZEff=  -0.0000000  -0.0000000  -0.0000000  -0.0000000  -0.0000000  -0.0000000  -0.0000000  -0.0000000  -0.0000000  -0.0000000
 NQMom=    0.0000000   0.0000000   2.0440000   4.0590000   0.0000000   0.0000000   2.0440000   0.0000000   0.0000000   0.0000000
 NMagM=    0.0000000   0.0000000   0.4037610   2.6886370   2.6288670   2.6288670   0.4037610   0.0000000   0.0000000   0.0000000
 AtZNuc=   6.0000000   6.0000000   7.0000000   5.0000000   9.0000000   9.0000000   7.0000000   6.0000000   6.0000000   6.0000000

  Atom        41          42          43          44          45          46          47          48          49          50
 IAtWgt=          12          12          12          12          12          16          12          12           1           1
 AtmWgt=  12.0000000  12.0000000  12.0000000  12.0000000  12.0000000  15.9949146  12.0000000  12.0000000   1.0078250   1.0078250
 NucSpn=           0           0           0           0           0           0           0           0           1           1
 AtZEff=  -0.0000000  -0.0000000  -0.0000000  -0.0000000  -0.0000000  -0.0000000  -0.0000000  -0.0000000  -0.0000000  -0.0000000
 NQMom=    0.0000000   0.0000000   0.0000000   0.0000000   0.0000000   0.0000000   0.0000000   0.0000000   0.0000000   0.0000000
 NMagM=    0.0000000   0.0000000   0.0000000   0.0000000   0.0000000   0.0000000   0.0000000   0.0000000   2.7928460   2.7928460
 AtZNuc=   6.0000000   6.0000000   6.0000000   6.0000000   6.0000000   8.0000000   6.0000000   6.0000000   1.0000000   1.0000000

  Atom        51          52          53          54          55          56          57          58          59          60
 IAtWgt=           1           1           1           1           1           1           1           1           1           1
 AtmWgt=   1.0078250   1.0078250   1.0078250   1.0078250   1.0078250   1.0078250   1.0078250   1.0078250   1.0078250   1.0078250
 NucSpn=           1           1           1           1           1           1           1           1           1           1
 AtZEff=  -0.0000000  -0.0000000  -0.0000000  -0.0000000  -0.0000000  -0.0000000  -0.0000000  -0.0000000  -0.0000000  -0.0000000
 NQMom=    0.0000000   0.0000000   0.0000000   0.0000000   0.0000000   0.0000000   0.0000000   0.0000000   0.0000000   0.0000000
 NMagM=    2.7928460   2.7928460   2.7928460   2.7928460   2.7928460   2.7928460   2.7928460   2.7928460   2.7928460   2.7928460
 AtZNuc=   1.0000000   1.0000000   1.0000000   1.0000000   1.0000000   1.0000000   1.0000000   1.0000000   1.0000000   1.0000000

  Atom        61          62          63          64          65          66          67          68          69          70
 IAtWgt=           1           1           1           1           1           1           1           1           1           1
 AtmWgt=   1.0078250   1.0078250   1.0078250   1.0078250   1.0078250   1.0078250   1.0078250   1.0078250   1.0078250   1.0078250
 NucSpn=           1           1           1           1           1           1           1           1           1           1
 AtZEff=  -0.0000000  -0.0000000  -0.0000000  -0.0000000  -0.0000000  -0.0000000  -0.0000000  -0.0000000  -0.0000000  -0.0000000
 NQMom=    0.0000000   0.0000000   0.0000000   0.0000000   0.0000000   0.0000000   0.0000000   0.0000000   0.0000000   0.0000000
 NMagM=    2.7928460   2.7928460   2.7928460   2.7928460   2.7928460   2.7928460   2.7928460   2.7928460   2.7928460   2.7928460
 AtZNuc=   1.0000000   1.0000000   1.0000000   1.0000000   1.0000000   1.0000000   1.0000000   1.0000000   1.0000000   1.0000000

  Atom        71          72          73          74          75          76          77          78          79          80
 IAtWgt=           1           1           1           1           1           1           1           1           1           1
 AtmWgt=   1.0078250   1.0078250   1.0078250   1.0078250   1.0078250   1.0078250   1.0078250   1.0078250   1.0078250   1.0078250
 NucSpn=           1           1           1           1           1           1           1           1           1           1
 AtZEff=  -0.0000000  -0.0000000  -0.0000000  -0.0000000  -0.0000000  -0.0000000  -0.0000000  -0.0000000  -0.0000000  -0.0000000
 NQMom=    0.0000000   0.0000000   0.0000000   0.0000000   0.0000000   0.0000000   0.0000000   0.0000000   0.0000000   0.0000000
 NMagM=    2.7928460   2.7928460   2.7928460   2.7928460   2.7928460   2.7928460   2.7928460   2.7928460   2.7928460   2.7928460
 AtZNuc=   1.0000000   1.0000000   1.0000000   1.0000000   1.0000000   1.0000000   1.0000000   1.0000000   1.0000000   1.0000000

  Atom        81          82          83
 IAtWgt=           1           1           1
 AtmWgt=   1.0078250   1.0078250   1.0078250
 NucSpn=           1           1           1
 AtZEff=  -0.0000000  -0.0000000  -0.0000000
 NQMom=    0.0000000   0.0000000   0.0000000
 NMagM=    2.7928460   2.7928460   2.7928460
 AtZNuc=   1.0000000   1.0000000   1.0000000
 Leave Link  101 at Thu Nov  6 02:24:22 2025, MaxMem= 30870077440 cpu:               4.1 elap:               0.1
 (Enter /public/software/gauss/g16/l202.exe)
 Stoichiometry    C40H35BF2N2O3(1-,2)
 Framework group  C1[X(C40H35BF2N2O3)]
 Deg. of freedom   243
 Full point group                 C1      NOp   1
 Largest Abelian subgroup         C1      NOp   1
 Largest concise Abelian subgroup C1      NOp   1
                         Standard orientation:                         
 ---------------------------------------------------------------------
 Center     Atomic      Atomic             Coordinates (Angstroms)
 Number     Number       Type             X           Y           Z
 ---------------------------------------------------------------------
      1          6           0        1.456589   -5.556096    0.761619
      2          6           0        1.502499   -4.803849   -0.580264
      3          6           0        1.546357   -3.306232   -0.429567
      4          6           0        2.703503   -2.520608   -0.459722
      5          6           0        4.089401   -3.038612   -0.719152
      6          6           0        2.299819   -1.161532   -0.235296
      7          6           0        3.046717    0.043225   -0.153623
      8          6           0        4.533783    0.003156   -0.183070
      9          6           0        5.241728    0.512716   -1.285776
     10          6           0        6.631997    0.473994   -1.314160
     11          6           0        7.346609   -0.066963   -0.234010
     12          6           0        8.812987   -0.090839   -0.282765
     13          8           0        9.537759   -0.532299    0.606800
     14          6           0        6.646555   -0.574029    0.875258
     15          6           0        5.259781   -0.542793    0.895440
     16          6           0        2.375724    1.286752   -0.022254
     17          6           0        2.886109    2.596745    0.263400
     18          6           0        4.307953    3.013133    0.515532
     19          6           0        1.789063    3.456070    0.319450
     20          6           0        1.830007    4.934522    0.609014
     21          6           0        1.641549    5.270875    2.098730
     22          6           0        0.611536    2.690119    0.078959
     23          6           0       -0.693661    3.263935    0.023614
     24          6           0       -1.889324    2.739554   -0.394044
     25          6           0       -3.154574    3.440030   -0.389118
     26          6           0       -3.345155    4.742977    0.151121
     27          6           0       -4.581511    5.356109    0.119527
     28          6           0       -5.698597    4.703533   -0.447950
     29          6           0       -7.010137    5.332416   -0.486587
     30          8           0       -7.276986    6.455801   -0.046126
     31          6           0       -5.527225    3.411358   -0.981124
     32          6           0       -4.287525    2.796064   -0.950509
     33          7           0        0.989014    1.365794   -0.112418
     34          5           0        0.061387    0.137347   -0.186145
     35          9           0       -0.662264    0.122362   -1.405584
     36          9           0       -0.870548    0.171687    0.874091
     37          7           0        0.924774   -1.138506   -0.099527
     38          6           0        0.437974   -2.439052   -0.197325
     39          6           0       -0.957960   -2.690128   -0.035959
     40          6           0       -1.638880   -3.877531   -0.108905
     41          6           0       -3.065841   -4.032653    0.078121
     42          6           0       -3.954564   -2.961939    0.360305
     43          6           0       -5.308965   -3.188053    0.529526
     44          6           0       -5.848028   -4.486691    0.425839
     45          6           0       -7.277168   -4.691926    0.609766
     46          8           0       -7.855364   -5.781809    0.540337
     47          6           0       -4.977324   -5.560152    0.143747
     48          6           0       -3.624735   -5.335935   -0.024802
     49          1           0        0.577264   -5.275537    1.349859
     50          1           0        1.422670   -6.638756    0.599084
     51          1           0        2.344768   -5.331866    1.361523
     52          1           0        2.387761   -5.134136   -1.132651
     53          1           0        0.646252   -5.095993   -1.196612
     54          1           0        4.652651   -2.381761   -1.386543
     55          1           0        4.679301   -3.142435    0.198651
     56          1           0        4.047375   -4.025270   -1.187416
     57          1           0        4.692545    0.930835   -2.123278
     58          1           0        7.173176    0.860552   -2.173811
     59          1           0        9.256019    0.329809   -1.205996
     60          1           0        7.203335   -0.984669    1.711606
     61          1           0        4.720484   -0.931454    1.753474
     62          1           0        4.897678    3.084324   -0.405448
     63          1           0        4.334849    3.993828    0.996772
     64          1           0        4.830067    2.311816    1.171675
     65          1           0        2.786951    5.343272    0.268778
     66          1           0        1.061424    5.451211    0.024615
     67          1           0        1.682113    6.353270    2.261871
     68          1           0        0.675232    4.909159    2.465387
     69          1           0        2.423596    4.807283    2.709275
     70          1           0       -0.696247    4.302474    0.342178
     71          1           0       -1.918976    1.735032   -0.796049
     72          1           0       -2.510946    5.266692    0.606112
     73          1           0       -4.710412    6.350314    0.536627
     74          1           0       -7.805292    4.721122   -0.957043
     75          1           0       -6.380495    2.898690   -1.418454
     76          1           0       -4.168764    1.798783   -1.364740
     77          1           0       -1.536462   -1.804530    0.200394
     78          1           0       -1.109681   -4.799910   -0.317575
     79          1           0       -3.575850   -1.948944    0.445619
     80          1           0       -5.973629   -2.355192    0.745924
     81          1           0       -7.855465   -3.772701    0.827897
     82          1           0       -5.384540   -6.563309    0.061734
     83          1           0       -2.962568   -6.169744   -0.241682
 ---------------------------------------------------------------------
 Rotational constants (GHZ):           0.0628552           0.0381432           0.0244514
 Leave Link  202 at Thu Nov  6 02:24:22 2025, MaxMem= 30870077440 cpu:               0.2 elap:               0.0
 (Enter /public/software/gauss/g16/l301.exe)
 Standard basis: def2TZVPP (5D, 7F)
 Ernie: Thresh=  0.10000D-02 Tol=  0.10000D-05 Strict=F.
 There are  2253 symmetry adapted cartesian basis functions of A   symmetry.
 There are  1978 symmetry adapted basis functions of A   symmetry.
  1978 basis functions,  3043 primitive gaussians,  2253 cartesian basis functions
   169 alpha electrons      168 beta electrons
       nuclear repulsion energy      5565.1454419187 Hartrees.
 IExCor= 4336 DFT=T Ex+Corr=M062X ExCW=0 ScaHFX=  0.540000
 ScaDFX=  1.000000  1.000000  1.000000  1.000000 ScalE2=  1.000000  1.000000
 IRadAn=      5 IRanWt=     -1 IRanGd=            0 ICorTp=0 IEmpDi=131
 NAtoms=   83 NActive=   83 NUniq=   83 SFac= 1.00D+00 NAtFMM=   60 NAOKFM=T Big=T
 Integral buffers will be    131072 words long.
 Raffenetti 2 integral format.
 Two-electron integral symmetry is turned on.
 R6Disp:  Grimme-D3 Dispersion energy=       -0.0077430810 Hartrees.
 Nuclear repulsion after empirical dispersion term =     5565.1376988377 Hartrees.
 ------------------------------------------------------------------------------
 Polarizable Continuum Model (PCM)
 =================================
 Model                : PCM.
 Atomic radii         : UFF (Universal Force Field).
 Polarization charges : Total charges.
 Charge compensation  : None.
 Solution method      : On-the-fly selection.
 Cavity type          : Scaled VdW (van der Waals Surface) (Alpha=1.100).
 Cavity algorithm     : GePol (No added spheres)
                        Default sphere list used, NSphG=   83.
                        Lebedev-Laikov grids with approx.  5.0 points / Ang**2.
                        Smoothing algorithm: York/Karplus (Gamma=1.0000).
                        Polarization charges: spherical gaussians, with
                                              point-specific exponents (IZeta= 3).
                        Self-potential: point-specific (ISelfS= 7).
                        Self-field    : sphere-specific E.n sum rule (ISelfD= 2).
 Solvent              : Water, Eps=  78.355300 Eps(inf)=   1.777849
 ------------------------------------------------------------------------------
 GePol: Number of generator spheres                  =      83
 GePol: Total number of spheres                      =      83
 GePol: Number of exposed spheres                    =      83 (100.00%)
 GePol: Number of points                             =    5881
 GePol: Average weight of points                     =       0.13
 GePol: Minimum weight of points                     =   0.19D-11
 GePol: Maximum weight of points                     =    0.20577
 GePol: Number of points with low weight             =     384
 GePol: Fraction of low-weight points (<1% of avg)   =       6.53%
 GePol: Cavity surface area                          =    741.870 Ang**2
 GePol: Cavity volume                                =    867.649 Ang**3
 Leave Link  301 at Thu Nov  6 02:24:22 2025, MaxMem= 30870077440 cpu:               3.7 elap:               0.1
 (Enter /public/software/gauss/g16/l302.exe)
 NPDir=0 NMtPBC=     1 NCelOv=     1 NCel=       1 NClECP=     1 NCelD=      1
         NCelK=      1 NCelE2=     1 NClLst=     1 CellRange=     0.0.
 One-electron integrals computed using PRISM.
 One-electron integral symmetry used in STVInt
   1 Symmetry operations used in ECPInt.
 ECPInt:  NShTT=  272691 NPrTT=  770581 LenC2=  174956 LenP2D=  331031.
 LDataN:  DoStor=T MaxTD1= 6 Len=  172
 NBasis=  1978 RedAO= T EigKep=  3.24D-06  NBF=  1978
 NBsUse=  1978 1.00D-06 EigRej= -1.00D+00 NBFU=  1978
 Precomputing XC quadrature grid using
 IXCGrd= 4 IRadAn=           5 IRanWt=          -1 IRanGd=           0 AccXCQ= 0.00D+00.
 Generated NRdTot=       0 NPtTot=           0 NUsed=           0 NTot=          32
 NSgBfM=  2004  2004  2004  2004  2004 MxSgAt=    83 MxSgA2=    83.
 Leave Link  302 at Thu Nov  6 02:24:33 2025, MaxMem= 30870077440 cpu:             697.4 elap:              11.0
 (Enter /public/software/gauss/g16/l303.exe)
 DipDrv:  MaxL=1.
 Leave Link  303 at Thu Nov  6 02:24:34 2025, MaxMem= 30870077440 cpu:              31.1 elap:               0.6
 (Enter /public/software/gauss/g16/l401.exe)
 ExpMin= 6.06D-02 ExpMax= 3.55D+04 ExpMxC= 1.21D+03 IAcc=3 IRadAn=         5 AccDes= 0.00D+00
 Harris functional with IExCor= 1009 and IRadAn=       5 diagonalized for initial guess.
 HarFok:  IExCor= 1009 AccDes= 0.00D+00 IRadAn=         5 IDoV= 1 UseB2=F ITyADJ=14
 ICtDFT=  3500011 ScaDFX=  1.000000  1.000000  1.000000  1.000000
 FoFCou: FMM=F IPFlag=           0 FMFlag=      100000 FMFlg1=        2001
         NFxFlg=           0 DoJE=T BraDBF=F KetDBF=T FulRan=T
         wScrn=  0.000000 ICntrl=       500 IOpCl=  0 I1Cent=   200000004 NGrid=           0
         NMat0=    1 NMatS0=      1 NMatT0=    0 NMatD0=    1 NMtDS0=    0 NMtDT0=    0
 Petite list used in FoFCou.
 Harris En= -2104.37612091273    
 JPrj=0 DoOrth=F DoCkMO=F.
 Initial guess <Sx>= 0.0000 <Sy>= 0.0000 <Sz>= 0.5000 <S**2>= 0.7500 S= 0.5000
 Leave Link  401 at Thu Nov  6 02:24:46 2025, MaxMem= 30870077440 cpu:             804.2 elap:              12.6
 (Enter /public/software/gauss/g16/l502.exe)
 Integral symmetry usage will be decided dynamically.
 UHF open shell SCF:
 Using DIIS extrapolation, IDIIS=  1040.
 NGot= 30870077440 LenX= 30859762251 LenY= 30854683989
 Requested convergence on RMS density matrix=1.00D-08 within 128 cycles.
 Requested convergence on MAX density matrix=1.00D-06.
 Requested convergence on             energy=1.00D-06.
 No special actions if energy rises.
 Fock matrices will be formed incrementally for  20 cycles.

 Cycle   1  Pass 1  IDiag  1:
 FoFJK:  IHMeth= 1 ICntrl=       0 DoSepK=F KAlg= 0 I1Cent=           0 FoldK=F
 IRaf= 610000000 NMat=       1 IRICut=       1 DoRegI=T DoRafI=F ISym2E= 0 IDoP0=0 IntGTp=1.
 FoFCou: FMM=T IPFlag=           0 FMFlag=      100000 FMFlg1=        2001
         NFxFlg=           0 DoJE=F BraDBF=F KetDBF=F FulRan=T
         wScrn=  0.000000 ICntrl=         0 IOpCl=  1 I1Cent=           0 NGrid=           0
         NMat0=    1 NMatS0=      1 NMatT0=    0 NMatD0=    1 NMtDS0=    0 NMtDT0=    0
 Symmetry not used in FoFCou.
 FMM levels:  10  Number of levels for PrismC:   9
 Inv3:  Mode=1 IEnd=   103758483.
 Iteration    1 A*A^-1 deviation from unit magnitude is 1.79D-14 for   5853.
 Iteration    1 A*A^-1 deviation from orthogonality  is 6.36D-15 for   5853   2350.
 Iteration    1 A^-1*A deviation from unit magnitude is 1.79D-14 for   5853.
 Iteration    1 A^-1*A deviation from orthogonality  is 2.81D-14 for   3733   3715.
 E= -2104.20333879862    
 DIIS: error= 1.85D-02 at cycle   1 NSaved=   1.
 NSaved= 1 IEnMin= 1 EnMin= -2104.20333879862     IErMin= 1 ErrMin= 1.85D-02
 ErrMax= 1.85D-02  0.00D+00 EMaxC= 1.00D-01 BMatC= 5.71D+00 BMatP= 5.71D+00
 IDIUse=3 WtCom= 8.15D-01 WtEn= 1.85D-01
 Coeff-Com:  0.100D+01
 Coeff-En:   0.100D+01
 Coeff:      0.100D+01
 Gap=     0.109 Goal=   None    Shift=    0.000
 Gap=     0.122 Goal=   None    Shift=    0.000
 GapD=    0.109 DampG=1.000 DampE=0.500 DampFc=0.5000 IDamp=-1.
 Damping current iteration by 5.00D-01
 RMSDP=2.10D-03 MaxDP=6.30D-01              OVMax= 2.09D-01

 Cycle   2  Pass 1  IDiag  1:
 RMSU=  1.05D-03    CP:  1.01D+00
 E= -2104.78193783244     Delta-E=       -0.578599033814 Rises=F Damp=T
 DIIS: error= 4.49D-03 at cycle   2 NSaved=   2.
 NSaved= 2 IEnMin= 2 EnMin= -2104.78193783244     IErMin= 2 ErrMin= 4.49D-03
 ErrMax= 4.49D-03  0.00D+00 EMaxC= 1.00D-01 BMatC= 5.37D-01 BMatP= 5.71D+00
 IDIUse=3 WtCom= 9.55D-01 WtEn= 4.49D-02
 Coeff-Com: -0.131D+00 0.113D+01
 Coeff-En:   0.000D+00 0.100D+01
 Coeff:     -0.125D+00 0.112D+01
 Gap=     0.101 Goal=   None    Shift=    0.000
 Gap=     0.131 Goal=   None    Shift=    0.000
 RMSDP=7.44D-04 MaxDP=1.46D-01 DE=-5.79D-01 OVMax= 1.21D-01

 Cycle   3  Pass 1  IDiag  1:
 RMSU=  7.40D-04    CP:  9.91D-01  9.63D-01
 E= -2105.28866761905     Delta-E=       -0.506729786615 Rises=F Damp=F
 DIIS: error= 3.71D-03 at cycle   3 NSaved=   3.
 NSaved= 3 IEnMin= 3 EnMin= -2105.28866761905     IErMin= 3 ErrMin= 3.71D-03
 ErrMax= 3.71D-03  0.00D+00 EMaxC= 1.00D-01 BMatC= 2.70D-01 BMatP= 5.37D-01
 IDIUse=3 WtCom= 9.63D-01 WtEn= 3.71D-02
 Coeff-Com: -0.130D+00 0.506D+00 0.624D+00
 Coeff-En:   0.000D+00 0.000D+00 0.100D+01
 Coeff:     -0.125D+00 0.487D+00 0.638D+00
 Gap=     0.109 Goal=   None    Shift=    0.000
 Gap=     0.127 Goal=   None    Shift=    0.000
 RMSDP=2.37D-04 MaxDP=6.06D-02 DE=-5.07D-01 OVMax= 7.65D-02

 Cycle   4  Pass 1  IDiag  1:
 RMSU=  1.86D-04    CP:  9.98D-01  1.08D+00  8.99D-01
 E= -2105.33363628097     Delta-E=       -0.044968661916 Rises=F Damp=F
 DIIS: error= 1.46D-03 at cycle   4 NSaved=   4.
 NSaved= 4 IEnMin= 4 EnMin= -2105.33363628097     IErMin= 4 ErrMin= 1.46D-03
 ErrMax= 1.46D-03  0.00D+00 EMaxC= 1.00D-01 BMatC= 4.46D-02 BMatP= 2.70D-01
 IDIUse=3 WtCom= 9.85D-01 WtEn= 1.46D-02
 Coeff-Com: -0.427D-01 0.110D+00 0.331D+00 0.602D+00
 Coeff-En:   0.000D+00 0.000D+00 0.109D+00 0.891D+00
 Coeff:     -0.421D-01 0.108D+00 0.328D+00 0.606D+00
 Gap=     0.109 Goal=   None    Shift=    0.000
 Gap=     0.129 Goal=   None    Shift=    0.000
 RMSDP=9.97D-05 MaxDP=2.90D-02 DE=-4.50D-02 OVMax= 2.20D-02

 Cycle   5  Pass 1  IDiag  1:
 RMSU=  6.73D-05    CP:  9.93D-01  1.03D+00  9.40D-01  7.95D-01
 E= -2105.34271268270     Delta-E=       -0.009076401736 Rises=F Damp=F
 DIIS: error= 3.31D-04 at cycle   5 NSaved=   5.
 NSaved= 5 IEnMin= 5 EnMin= -2105.34271268270     IErMin= 5 ErrMin= 3.31D-04
 ErrMax= 3.31D-04  0.00D+00 EMaxC= 1.00D-01 BMatC= 1.57D-03 BMatP= 4.46D-02
 IDIUse=3 WtCom= 9.97D-01 WtEn= 3.31D-03
 Coeff-Com: -0.110D-01 0.209D-01 0.109D+00 0.252D+00 0.629D+00
 Coeff-En:   0.000D+00 0.000D+00 0.000D+00 0.000D+00 0.100D+01
 Coeff:     -0.110D-01 0.208D-01 0.108D+00 0.251D+00 0.631D+00
 Gap=     0.111 Goal=   None    Shift=    0.000
 Gap=     0.130 Goal=   None    Shift=    0.000
 RMSDP=3.30D-05 MaxDP=2.10D-02 DE=-9.08D-03 OVMax= 1.13D-02

 Cycle   6  Pass 1  IDiag  1:
 RMSU=  2.79D-05    CP:  9.94D-01  1.04D+00  9.47D-01  8.27D-01  1.22D+00
 E= -2105.34323614500     Delta-E=       -0.000523462298 Rises=F Damp=F
 DIIS: error= 1.62D-04 at cycle   6 NSaved=   6.
 NSaved= 6 IEnMin= 6 EnMin= -2105.34323614500     IErMin= 6 ErrMin= 1.62D-04
 ErrMax= 1.62D-04  0.00D+00 EMaxC= 1.00D-01 BMatC= 1.83D-04 BMatP= 1.57D-03
 IDIUse=3 WtCom= 9.98D-01 WtEn= 1.62D-03
 Coeff-Com:  0.175D-02-0.587D-02-0.566D-02-0.307D-02 0.171D+00 0.842D+00
 Coeff-En:   0.000D+00 0.000D+00 0.000D+00 0.000D+00 0.000D+00 0.100D+01
 Coeff:      0.175D-02-0.586D-02-0.565D-02-0.307D-02 0.171D+00 0.842D+00
 Gap=     0.113 Goal=   None    Shift=    0.000
 Gap=     0.132 Goal=   None    Shift=    0.000
 RMSDP=2.76D-05 MaxDP=1.21D-02 DE=-5.23D-04 OVMax= 1.39D-02

 Cycle   7  Pass 1  IDiag  1:
 RMSU=  1.22D-05    CP:  9.94D-01  1.03D+00  9.54D-01  8.59D-01  1.51D+00
                    CP:  1.43D+00
 E= -2105.34342325151     Delta-E=       -0.000187106509 Rises=F Damp=F
 DIIS: error= 8.83D-05 at cycle   7 NSaved=   7.
 NSaved= 7 IEnMin= 7 EnMin= -2105.34342325151     IErMin= 7 ErrMin= 8.83D-05
 ErrMax= 8.83D-05  0.00D+00 EMaxC= 1.00D-01 BMatC= 7.04D-05 BMatP= 1.83D-04
 IDIUse=1 WtCom= 1.00D+00 WtEn= 0.00D+00
 Coeff-Com:  0.369D-02-0.782D-02-0.318D-01-0.754D-01-0.135D+00 0.278D+00
 Coeff-Com:  0.968D+00
 Coeff:      0.369D-02-0.782D-02-0.318D-01-0.754D-01-0.135D+00 0.278D+00
 Coeff:      0.968D+00
 Gap=     0.115 Goal=   None    Shift=    0.000
 Gap=     0.133 Goal=   None    Shift=    0.000
 RMSDP=2.73D-05 MaxDP=1.66D-02 DE=-1.87D-04 OVMax= 1.17D-02

 Cycle   8  Pass 1  IDiag  1:
 RMSU=  6.02D-06    CP:  9.94D-01  1.03D+00  9.62D-01  8.93D-01  1.76D+00
                    CP:  2.03D+00  1.60D+00
 E= -2105.34352192658     Delta-E=       -0.000098675068 Rises=F Damp=F
 DIIS: error= 4.99D-05 at cycle   8 NSaved=   8.
 NSaved= 8 IEnMin= 8 EnMin= -2105.34352192658     IErMin= 8 ErrMin= 4.99D-05
 ErrMax= 4.99D-05  0.00D+00 EMaxC= 1.00D-01 BMatC= 2.65D-05 BMatP= 7.04D-05
 IDIUse=1 WtCom= 1.00D+00 WtEn= 0.00D+00
 Coeff-Com:  0.125D-02-0.192D-02-0.135D-01-0.374D-01-0.133D+00-0.146D+00
 Coeff-Com:  0.476D+00 0.854D+00
 Coeff:      0.125D-02-0.192D-02-0.135D-01-0.374D-01-0.133D+00-0.146D+00
 Coeff:      0.476D+00 0.854D+00
 Gap=     0.116 Goal=   None    Shift=    0.000
 Gap=     0.134 Goal=   None    Shift=    0.000
 RMSDP=1.61D-05 MaxDP=7.68D-03 DE=-9.87D-05 OVMax= 6.20D-03

 Cycle   9  Pass 1  IDiag  1:
 RMSU=  3.92D-06    CP:  9.93D-01  1.03D+00  9.66D-01  9.10D-01  1.92D+00
                    CP:  2.34D+00  2.10D+00  1.34D+00
 E= -2105.34355263874     Delta-E=       -0.000030712165 Rises=F Damp=F
 DIIS: error= 1.94D-05 at cycle   9 NSaved=   9.
 NSaved= 9 IEnMin= 9 EnMin= -2105.34355263874     IErMin= 9 ErrMin= 1.94D-05
 ErrMax= 1.94D-05  0.00D+00 EMaxC= 1.00D-01 BMatC= 6.42D-06 BMatP= 2.65D-05
 IDIUse=1 WtCom= 1.00D+00 WtEn= 0.00D+00
 Coeff-Com: -0.653D-03 0.172D-02 0.440D-02 0.759D-02-0.156D-01-0.135D+00
 Coeff-Com: -0.899D-01 0.389D+00 0.839D+00
 Coeff:     -0.653D-03 0.172D-02 0.440D-02 0.759D-02-0.156D-01-0.135D+00
 Coeff:     -0.899D-01 0.389D+00 0.839D+00
 Gap=     0.117 Goal=   None    Shift=    0.000
 Gap=     0.134 Goal=   None    Shift=    0.000
 RMSDP=7.14D-06 MaxDP=4.68D-03 DE=-3.07D-05 OVMax= 2.35D-03

 Cycle  10  Pass 1  IDiag  1:
 RMSU=  1.62D-06    CP:  9.94D-01  1.03D+00  9.67D-01  9.19D-01  1.97D+00
                    CP:  2.49D+00  2.31D+00  1.75D+00  1.13D+00
 E= -2105.34355805351     Delta-E=       -0.000005414768 Rises=F Damp=F
 DIIS: error= 1.27D-05 at cycle  10 NSaved=  10.
 NSaved=10 IEnMin=10 EnMin= -2105.34355805351     IErMin=10 ErrMin= 1.27D-05
 ErrMax= 1.27D-05  0.00D+00 EMaxC= 1.00D-01 BMatC= 1.26D-06 BMatP= 6.42D-06
 IDIUse=1 WtCom= 1.00D+00 WtEn= 0.00D+00
 Coeff-Com: -0.541D-03 0.116D-02 0.454D-02 0.110D-01 0.178D-01-0.344D-01
 Coeff-Com: -0.129D+00 0.186D-01 0.352D+00 0.759D+00
 Coeff:     -0.541D-03 0.116D-02 0.454D-02 0.110D-01 0.178D-01-0.344D-01
 Coeff:     -0.129D+00 0.186D-01 0.352D+00 0.759D+00
 Gap=     0.117 Goal=   None    Shift=    0.000
 Gap=     0.134 Goal=   None    Shift=    0.000
 RMSDP=1.74D-06 MaxDP=8.20D-04 DE=-5.41D-06 OVMax= 6.67D-04

 Cycle  11  Pass 1  IDiag  1:
 RMSU=  6.06D-07    CP:  9.94D-01  1.03D+00  9.68D-01  9.20D-01  1.98D+00
                    CP:  2.52D+00  2.36D+00  1.82D+00  1.36D+00  1.18D+00
 E= -2105.34355896655     Delta-E=       -0.000000913040 Rises=F Damp=F
 DIIS: error= 6.39D-06 at cycle  11 NSaved=  11.
 NSaved=11 IEnMin=11 EnMin= -2105.34355896655     IErMin=11 ErrMin= 6.39D-06
 ErrMax= 6.39D-06  0.00D+00 EMaxC= 1.00D-01 BMatC= 2.62D-07 BMatP= 1.26D-06
 IDIUse=1 WtCom= 1.00D+00 WtEn= 0.00D+00
 Coeff-Com: -0.578D-04 0.769D-04 0.668D-03 0.236D-02 0.825D-02 0.971D-02
 Coeff-Com: -0.256D-01-0.527D-01-0.430D-01 0.267D+00 0.833D+00
 Coeff:     -0.578D-04 0.769D-04 0.668D-03 0.236D-02 0.825D-02 0.971D-02
 Coeff:     -0.256D-01-0.527D-01-0.430D-01 0.267D+00 0.833D+00
 Gap=     0.117 Goal=   None    Shift=    0.000
 Gap=     0.134 Goal=   None    Shift=    0.000
 RMSDP=7.30D-07 MaxDP=3.93D-04 DE=-9.13D-07 OVMax= 4.08D-04

 Cycle  12  Pass 1  IDiag  1:
 RMSU=  3.58D-07    CP:  9.94D-01  1.03D+00  9.68D-01  9.20D-01  1.98D+00
                    CP:  2.53D+00  2.36D+00  1.87D+00  1.39D+00  1.39D+00
                    CP:  1.34D+00
 E= -2105.34355927093     Delta-E=       -0.000000304380 Rises=F Damp=F
 DIIS: error= 3.98D-06 at cycle  12 NSaved=  12.
 NSaved=12 IEnMin=12 EnMin= -2105.34355927093     IErMin=12 ErrMin= 3.98D-06
 ErrMax= 3.98D-06  0.00D+00 EMaxC= 1.00D-01 BMatC= 1.11D-07 BMatP= 2.62D-07
 IDIUse=1 WtCom= 1.00D+00 WtEn= 0.00D+00
 Coeff-Com:  0.134D-03-0.307D-03-0.106D-02-0.222D-02-0.137D-02 0.131D-01
 Coeff-Com:  0.277D-01-0.223D-01-0.130D+00-0.102D+00 0.396D+00 0.823D+00
 Coeff:      0.134D-03-0.307D-03-0.106D-02-0.222D-02-0.137D-02 0.131D-01
 Coeff:      0.277D-01-0.223D-01-0.130D+00-0.102D+00 0.396D+00 0.823D+00
 Gap=     0.117 Goal=   None    Shift=    0.000
 Gap=     0.134 Goal=   None    Shift=    0.000
 RMSDP=4.48D-07 MaxDP=8.79D-05 DE=-3.04D-07 OVMax= 3.78D-04

 Cycle  13  Pass 1  IDiag  1:
 RMSU=  2.08D-07    CP:  9.94D-01  1.03D+00  9.68D-01  9.20D-01  1.98D+00
                    CP:  2.53D+00  2.36D+00  1.87D+00  1.42D+00  1.50D+00
                    CP:  1.71D+00  1.48D+00
 E= -2105.34355942634     Delta-E=       -0.000000155407 Rises=F Damp=F
 DIIS: error= 2.76D-06 at cycle  13 NSaved=  13.
 NSaved=13 IEnMin=13 EnMin= -2105.34355942634     IErMin=13 ErrMin= 2.76D-06
 ErrMax= 2.76D-06  0.00D+00 EMaxC= 1.00D-01 BMatC= 2.97D-08 BMatP= 1.11D-07
 IDIUse=1 WtCom= 1.00D+00 WtEn= 0.00D+00
 Coeff-Com:  0.561D-04-0.112D-03-0.521D-03-0.144D-02-0.284D-02-0.229D-03
 Coeff-Com:  0.167D-01 0.129D-01-0.333D-01-0.121D+00-0.126D+00 0.216D+00
 Coeff-Com:  0.104D+01
 Coeff:      0.561D-04-0.112D-03-0.521D-03-0.144D-02-0.284D-02-0.229D-03
 Coeff:      0.167D-01 0.129D-01-0.333D-01-0.121D+00-0.126D+00 0.216D+00
 Coeff:      0.104D+01
 Gap=     0.117 Goal=   None    Shift=    0.000
 Gap=     0.134 Goal=   None    Shift=    0.000
 RMSDP=3.64D-07 MaxDP=1.20D-04 DE=-1.55D-07 OVMax= 3.05D-04

 Cycle  14  Pass 1  IDiag  1:
 RMSU=  1.19D-07    CP:  9.94D-01  1.03D+00  9.68D-01  9.20D-01  1.98D+00
                    CP:  2.53D+00  2.36D+00  1.88D+00  1.42D+00  1.58D+00
                    CP:  1.96D+00  2.06D+00  1.72D+00
 E= -2105.34355950415     Delta-E=       -0.000000077811 Rises=F Damp=F
 DIIS: error= 1.40D-06 at cycle  14 NSaved=  14.
 NSaved=14 IEnMin=14 EnMin= -2105.34355950415     IErMin=14 ErrMin= 1.40D-06
 ErrMax= 1.40D-06  0.00D+00 EMaxC= 1.00D-01 BMatC= 1.31D-08 BMatP= 2.97D-08
 IDIUse=1 WtCom= 1.00D+00 WtEn= 0.00D+00
 Coeff-Com: -0.298D-04 0.744D-04 0.187D-03 0.210D-03-0.721D-03-0.584D-02
 Coeff-Com: -0.356D-02 0.153D-01 0.358D-01-0.102D-01-0.205D+00-0.261D+00
 Coeff-Com:  0.452D+00 0.983D+00
 Coeff:     -0.298D-04 0.744D-04 0.187D-03 0.210D-03-0.721D-03-0.584D-02
 Coeff:     -0.356D-02 0.153D-01 0.358D-01-0.102D-01-0.205D+00-0.261D+00
 Coeff:      0.452D+00 0.983D+00
 Gap=     0.117 Goal=   None    Shift=    0.000
 Gap=     0.134 Goal=   None    Shift=    0.000
 RMSDP=2.93D-07 MaxDP=1.09D-04 DE=-7.78D-08 OVMax= 2.19D-04

 Cycle  15  Pass 1  IDiag  1:
 RMSU=  6.23D-08    CP:  9.94D-01  1.03D+00  9.68D-01  9.21D-01  1.98D+00
                    CP:  2.54D+00  2.36D+00  1.89D+00  1.42D+00  1.62D+00
                    CP:  2.11D+00  2.50D+00  2.44D+00  1.73D+00
 E= -2105.34355953574     Delta-E=       -0.000000031593 Rises=F Damp=F
 DIIS: error= 6.56D-07 at cycle  15 NSaved=  15.
 NSaved=15 IEnMin=15 EnMin= -2105.34355953574     IErMin=15 ErrMin= 6.56D-07
 ErrMax= 6.56D-07  0.00D+00 EMaxC= 1.00D-01 BMatC= 3.58D-09 BMatP= 1.31D-08
 IDIUse=1 WtCom= 1.00D+00 WtEn= 0.00D+00
 Coeff-Com: -0.288D-04 0.632D-04 0.246D-03 0.569D-03 0.725D-03-0.198D-02
 Coeff-Com: -0.708D-02 0.402D-03 0.232D-01 0.412D-01-0.237D-01-0.174D+00
 Coeff-Com: -0.215D+00 0.377D+00 0.979D+00
 Coeff:     -0.288D-04 0.632D-04 0.246D-03 0.569D-03 0.725D-03-0.198D-02
 Coeff:     -0.708D-02 0.402D-03 0.232D-01 0.412D-01-0.237D-01-0.174D+00
 Coeff:     -0.215D+00 0.377D+00 0.979D+00
 Gap=     0.117 Goal=   None    Shift=    0.000
 Gap=     0.134 Goal=   None    Shift=    0.000
 RMSDP=1.79D-07 MaxDP=7.90D-05 DE=-3.16D-08 OVMax= 1.09D-04

 Cycle  16  Pass 1  IDiag  1:
 RMSU=  3.53D-08    CP:  9.94D-01  1.03D+00  9.68D-01  9.21D-01  1.98D+00
                    CP:  2.54D+00  2.36D+00  1.89D+00  1.42D+00  1.64D+00
                    CP:  2.18D+00  2.73D+00  2.83D+00  2.35D+00  1.55D+00
 E= -2105.34355954386     Delta-E=       -0.000000008123 Rises=F Damp=F
 DIIS: error= 2.55D-07 at cycle  16 NSaved=  16.
 NSaved=16 IEnMin=16 EnMin= -2105.34355954386     IErMin=16 ErrMin= 2.55D-07
 ErrMax= 2.55D-07  0.00D+00 EMaxC= 1.00D-01 BMatC= 7.38D-10 BMatP= 3.58D-09
 IDIUse=1 WtCom= 1.00D+00 WtEn= 0.00D+00
 Coeff-Com: -0.231D-05 0.340D-05 0.412D-04 0.145D-03 0.394D-03 0.670D-03
 Coeff-Com: -0.165D-02-0.356D-02-0.284D-03 0.165D-01 0.384D-01 0.939D-03
 Coeff-Com: -0.183D+00-0.844D-01 0.334D+00 0.882D+00
 Coeff:     -0.231D-05 0.340D-05 0.412D-04 0.145D-03 0.394D-03 0.670D-03
 Coeff:     -0.165D-02-0.356D-02-0.284D-03 0.165D-01 0.384D-01 0.939D-03
 Coeff:     -0.183D+00-0.844D-01 0.334D+00 0.882D+00
 Gap=     0.117 Goal=   None    Shift=    0.000
 Gap=     0.134 Goal=   None    Shift=    0.000
 RMSDP=7.10D-08 MaxDP=3.49D-05 DE=-8.12D-09 OVMax= 4.01D-05

 Cycle  17  Pass 1  IDiag  1:
 RMSU=  1.68D-08    CP:  9.94D-01  1.03D+00  9.68D-01  9.21D-01  1.98D+00
                    CP:  2.54D+00  2.36D+00  1.89D+00  1.42D+00  1.65D+00
                    CP:  2.20D+00  2.80D+00  2.96D+00  2.57D+00  1.91D+00
                    CP:  1.44D+00
 E= -2105.34355954484     Delta-E=       -0.000000000979 Rises=F Damp=F
 DIIS: error= 1.32D-07 at cycle  17 NSaved=  17.
 NSaved=17 IEnMin=17 EnMin= -2105.34355954484     IErMin=17 ErrMin= 1.32D-07
 ErrMax= 1.32D-07  0.00D+00 EMaxC= 1.00D-01 BMatC= 1.99D-10 BMatP= 7.38D-10
 IDIUse=1 WtCom= 1.00D+00 WtEn= 0.00D+00
 Coeff-Com:  0.556D-05-0.125D-04-0.392D-04-0.731D-04-0.406D-04 0.619D-03
 Coeff-Com:  0.967D-03-0.122D-02-0.484D-02-0.357D-02 0.179D-01 0.423D-01
 Coeff-Com: -0.169D-01-0.107D+00-0.124D+00 0.300D+00 0.896D+00
 Coeff:      0.556D-05-0.125D-04-0.392D-04-0.731D-04-0.406D-04 0.619D-03
 Coeff:      0.967D-03-0.122D-02-0.484D-02-0.357D-02 0.179D-01 0.423D-01
 Coeff:     -0.169D-01-0.107D+00-0.124D+00 0.300D+00 0.896D+00
 Gap=     0.117 Goal=   None    Shift=    0.000
 Gap=     0.134 Goal=   None    Shift=    0.000
 RMSDP=2.74D-08 MaxDP=1.04D-05 DE=-9.79D-10 OVMax= 1.50D-05

 Cycle  18  Pass 1  IDiag  1:
 RMSU=  8.82D-09    CP:  9.94D-01  1.03D+00  9.68D-01  9.21D-01  1.98D+00
                    CP:  2.54D+00  2.36D+00  1.89D+00  1.42D+00  1.65D+00
                    CP:  2.20D+00  2.82D+00  2.99D+00  2.66D+00  2.05D+00
                    CP:  1.78D+00  1.47D+00
 E= -2105.34355954525     Delta-E=       -0.000000000407 Rises=F Damp=F
 DIIS: error= 7.84D-08 at cycle  18 NSaved=  18.
 NSaved=18 IEnMin=18 EnMin= -2105.34355954525     IErMin=18 ErrMin= 7.84D-08
 ErrMax= 7.84D-08  0.00D+00 EMaxC= 1.00D-01 BMatC= 6.09D-11 BMatP= 1.99D-10
 IDIUse=1 WtCom= 1.00D+00 WtEn= 0.00D+00
 Coeff-Com:  0.242D-05-0.517D-05-0.237D-04-0.584D-04-0.107D-03 0.696D-04
 Coeff-Com:  0.759D-03 0.458D-03-0.159D-02-0.549D-02-0.408D-02 0.157D-01
 Coeff-Com:  0.375D-01-0.131D-01-0.130D+00-0.115D+00 0.340D+00 0.874D+00
 Coeff:      0.242D-05-0.517D-05-0.237D-04-0.584D-04-0.107D-03 0.696D-04
 Coeff:      0.759D-03 0.458D-03-0.159D-02-0.549D-02-0.408D-02 0.157D-01
 Coeff:      0.375D-01-0.131D-01-0.130D+00-0.115D+00 0.340D+00 0.874D+00
 Gap=     0.117 Goal=   None    Shift=    0.000
 Gap=     0.134 Goal=   None    Shift=    0.000
 RMSDP=1.27D-08 MaxDP=2.38D-06 DE=-4.07D-10 OVMax= 8.68D-06

 Cycle  19  Pass 1  IDiag  1:
 RMSU=  4.98D-09    CP:  9.94D-01  1.03D+00  9.68D-01  9.21D-01  1.98D+00
                    CP:  2.54D+00  2.36D+00  1.89D+00  1.42D+00  1.65D+00
                    CP:  2.20D+00  2.83D+00  2.99D+00  2.69D+00  2.12D+00
                    CP:  1.92D+00  1.85D+00  1.54D+00
 E= -2105.34355954526     Delta-E=       -0.000000000010 Rises=F Damp=F
 DIIS: error= 4.56D-08 at cycle  19 NSaved=  19.
 NSaved=19 IEnMin=19 EnMin= -2105.34355954526     IErMin=19 ErrMin= 4.56D-08
 ErrMax= 4.56D-08  0.00D+00 EMaxC= 1.00D-01 BMatC= 1.92D-11 BMatP= 6.09D-11
 IDIUse=1 WtCom= 1.00D+00 WtEn= 0.00D+00
 Coeff-Com: -0.929D-06 0.212D-05 0.300D-05 0.160D-05-0.289D-04-0.161D-03
 Coeff-Com: -0.837D-05 0.578D-03 0.908D-03-0.993D-03-0.748D-02-0.705D-02
 Coeff-Com:  0.193D-01 0.306D-01-0.690D-02-0.152D+00-0.160D+00 0.338D+00
 Coeff-Com:  0.945D+00
 Coeff:     -0.929D-06 0.212D-05 0.300D-05 0.160D-05-0.289D-04-0.161D-03
 Coeff:     -0.837D-05 0.578D-03 0.908D-03-0.993D-03-0.748D-02-0.705D-02
 Coeff:      0.193D-01 0.306D-01-0.690D-02-0.152D+00-0.160D+00 0.338D+00
 Coeff:      0.945D+00
 Gap=     0.117 Goal=   None    Shift=    0.000
 Gap=     0.134 Goal=   None    Shift=    0.000
 RMSDP=9.32D-09 MaxDP=2.93D-06 DE=-1.00D-11 OVMax= 5.67D-06

 Cycle  20  Pass 1  IDiag  1:
 RMSU=  3.02D-09    CP:  9.94D-01  1.03D+00  9.68D-01  9.21D-01  1.98D+00
                    CP:  2.54D+00  2.36D+00  1.89D+00  1.42D+00  1.65D+00
                    CP:  2.20D+00  2.83D+00  3.00D+00  2.70D+00  2.14D+00
                    CP:  1.99D+00  2.09D+00  2.09D+00  1.59D+00
 E= -2105.34355954554     Delta-E=       -0.000000000282 Rises=F Damp=F
 DIIS: error= 2.58D-08 at cycle  20 NSaved=  20.
 NSaved=20 IEnMin=20 EnMin= -2105.34355954554     IErMin=20 ErrMin= 2.58D-08
 ErrMax= 2.58D-08  0.00D+00 EMaxC= 1.00D-01 BMatC= 5.80D-12 BMatP= 1.92D-11
 IDIUse=1 WtCom= 1.00D+00 WtEn= 0.00D+00
 Coeff-Com: -0.991D-06 0.220D-05 0.677D-05 0.148D-04 0.107D-04-0.905D-04
 Coeff-Com: -0.190D-03 0.132D-03 0.776D-03 0.103D-02-0.188D-02-0.655D-02
 Coeff-Com: -0.155D-02 0.149D-01 0.311D-01-0.360D-01-0.151D+00-0.837D-01
 Coeff-Com:  0.398D+00 0.835D+00
 Coeff:     -0.991D-06 0.220D-05 0.677D-05 0.148D-04 0.107D-04-0.905D-04
 Coeff:     -0.190D-03 0.132D-03 0.776D-03 0.103D-02-0.188D-02-0.655D-02
 Coeff:     -0.155D-02 0.149D-01 0.311D-01-0.360D-01-0.151D+00-0.837D-01
 Coeff:      0.398D+00 0.835D+00
 Gap=     0.117 Goal=   None    Shift=    0.000
 Gap=     0.134 Goal=   None    Shift=    0.000
 RMSDP=4.84D-09 MaxDP=1.59D-06 DE=-2.82D-10 OVMax= 3.20D-06

 Cycle  21  Pass 1  IDiag  1:
 Restarting incremental Fock formation.
 E= -2105.34355954501     Delta-E=        0.000000000532 Rises=F Damp=F
 DIIS: error= 1.32D-08 at cycle  21 NSaved=  20.
 NSaved=20 IEnMin=19 EnMin= -2105.34355954554     IErMin=20 ErrMin= 1.32D-08
 ErrMax= 1.32D-08  0.00D+00 EMaxC= 1.00D-01 BMatC= 1.77D-12 BMatP= 5.80D-12
 IDIUse=1 WtCom= 1.00D+00 WtEn= 0.00D+00
 Coeff-Com: -0.453D-08 0.120D-05 0.380D-05 0.120D-04 0.203D-04-0.521D-04
 Coeff-Com: -0.143D-03-0.283D-04 0.610D-03 0.157D-02 0.754D-04-0.640D-02
 Coeff-Com: -0.491D-02 0.127D-01 0.373D-01 0.359D-02-0.137D+00-0.184D+00
 Coeff-Com:  0.264D+00 0.101D+01
 Coeff:     -0.453D-08 0.120D-05 0.380D-05 0.120D-04 0.203D-04-0.521D-04
 Coeff:     -0.143D-03-0.283D-04 0.610D-03 0.157D-02 0.754D-04-0.640D-02
 Coeff:     -0.491D-02 0.127D-01 0.373D-01 0.359D-02-0.137D+00-0.184D+00
 Coeff:      0.264D+00 0.101D+01
 Gap=     0.117 Goal=   None    Shift=    0.000
 Gap=     0.134 Goal=   None    Shift=    0.000
 RMSDP=4.92D-09 MaxDP=1.26D-06 DE= 5.32D-10 OVMax= 2.47D-06

 Cycle  22  Pass 1  IDiag  1:
 RMSU=  4.92D-09    CP:  1.00D+00
 E= -2105.34355954518     Delta-E=       -0.000000000167 Rises=F Damp=F
 DIIS: error= 8.54D-09 at cycle  22 NSaved=  20.
 NSaved=20 IEnMin=18 EnMin= -2105.34355954554     IErMin=20 ErrMin= 8.54D-09
 ErrMax= 8.54D-09  0.00D+00 EMaxC= 1.00D-01 BMatC= 5.84D-13 BMatP= 1.77D-12
 IDIUse=1 WtCom= 1.00D+00 WtEn= 0.00D+00
 Coeff-Com:  0.891D-06 0.210D-05 0.872D-05 0.171D-04-0.153D-04-0.803D-04
 Coeff-Com: -0.672D-04 0.137D-03 0.802D-03 0.993D-03-0.217D-02-0.428D-02
 Coeff-Com: -0.213D-02 0.216D-01 0.355D-01-0.241D-01-0.167D+00-0.148D+00
 Coeff-Com:  0.350D+00 0.939D+00
 Coeff:      0.891D-06 0.210D-05 0.872D-05 0.171D-04-0.153D-04-0.803D-04
 Coeff:     -0.672D-04 0.137D-03 0.802D-03 0.993D-03-0.217D-02-0.428D-02
 Coeff:     -0.213D-02 0.216D-01 0.355D-01-0.241D-01-0.167D+00-0.148D+00
 Coeff:      0.350D+00 0.939D+00
 Gap=     0.117 Goal=   None    Shift=    0.000
 Gap=     0.134 Goal=   None    Shift=    0.000
 RMSDP=2.33D-09 MaxDP=5.49D-07 DE=-1.67D-10 OVMax= 1.56D-06

 Error on total polarization charges =  0.02622
 SCF Done:  E(UM062X) =  -2105.34355955     A.U. after   22 cycles
            NFock= 22  Conv=0.23D-08     -V/T= 2.0055
 <Sx>= 0.0000 <Sy>= 0.0000 <Sz>= 0.5000 <S**2>= 0.8109 S= 0.5300
 <L.S>= 0.000000000000E+00
 KE= 2.093878746870D+03 PE=-1.606708155529D+04 EE= 6.302721550033D+03
 Annihilation of the first spin contaminant:
 S**2 before annihilation     0.8109,   after     0.7528
 Leave Link  502 at Thu Nov  6 03:07:45 2025, MaxMem= 30870077440 cpu:          163170.7 elap:            2579.1
 (Enter /public/software/gauss/g16/l601.exe)
 Copying SCF densities to generalized density rwf, IOpCl= 1 IROHF=0.

 **********************************************************************

            Population analysis using the SCF density.

 **********************************************************************

 Orbital symmetries:
 Alpha Orbitals:
       Occupied  (A) (A) (A) (A) (A) (A) (A) (A) (A) (A) (A) (A)
                 (A) (A) (A) (A) (A) (A) (A) (A) (A) (A) (A) (A)
                 (A) (A) (A) (A) (A) (A) (A) (A) (A) (A) (A) (A)
                 (A) (A) (A) (A) (A) (A) (A) (A) (A) (A) (A) (A)
                 (A) (A) (A) (A) (A) (A) (A) (A) (A) (A) (A) (A)
                 (A) (A) (A) (A) (A) (A) (A) (A) (A) (A) (A) (A)
                 (A) (A) (A) (A) (A) (A) (A) (A) (A) (A) (A) (A)
                 (A) (A) (A) (A) (A) (A) (A) (A) (A) (A) (A) (A)
                 (A) (A) (A) (A) (A) (A) (A) (A) (A) (A) (A) (A)
                 (A) (A) (A) (A) (A) (A) (A) (A) (A) (A) (A) (A)
                 (A) (A) (A) (A) (A) (A) (A) (A) (A) (A) (A) (A)
                 (A) (A) (A) (A) (A) (A) (A) (A) (A) (A) (A) (A)
                 (A) (A) (A) (A) (A) (A) (A) (A) (A) (A) (A) (A)
                 (A) (A) (A) (A) (A) (A) (A) (A) (A) (A) (A) (A)
                 (A)
       Virtual   (A) (A) (A) (A) (A) (A) (A) (A) (A) (A) (A) (A)
                 (A) (A) (A) (A) (A) (A) (A) (A) (A) (A) (A) (A)
                 (A) (A) (A) (A) (A) (A) (A) (A) (A) (A) (A) (A)
                 (A) (A) (A) (A) (A) (A) (A) (A) (A) (A) (A) (A)
                 (A) (A) (A) (A) (A) (A) (A) (A) (A) (A) (A) (A)
                 (A) (A) (A) (A) (A) (A) (A) (A) (A) (A) (A) (A)
                 (A) (A) (A) (A) (A) (A) (A) (A) (A) (A) (A) (A)
                 (A) (A) (A) (A) (A) (A) (A) (A) (A) (A) (A) (A)
                 (A) (A) (A) (A) (A) (A) (A) (A) (A) (A) (A) (A)
                 (A) (A) (A) (A) (A) (A) (A) (A) (A) (A) (A) (A)
                 (A) (A) (A) (A) (A) (A) (A) (A) (A) (A) (A) (A)
                 (A) (A) (A) (A) (A) (A) (A) (A) (A) (A) (A) (A)
                 (A) (A) (A) (A) (A) (A) (A) (A) (A) (A) (A) (A)
                 (A) (A) (A) (A) (A) (A) (A) (A) (A) (A) (A) (A)
                 (A) (A) (A) (A) (A) (A) (A) (A) (A) (A) (A) (A)
                 (A) (A) (A) (A) (A) (A) (A) (A) (A) (A) (A) (A)
                 (A) (A) (A) (A) (A) (A) (A) (A) (A) (A) (A) (A)
                 (A) (A) (A) (A) (A) (A) (A) (A) (A) (A) (A) (A)
                 (A) (A) (A) (A) (A) (A) (A) (A) (A) (A) (A) (A)
                 (A) (A) (A) (A) (A) (A) (A) (A) (A) (A) (A) (A)
                 (A) (A) (A) (A) (A) (A) (A) (A) (A) (A) (A) (A)
                 (A) (A) (A) (A) (A) (A) (A) (A) (A) (A) (A) (A)
                 (A) (A) (A) (A) (A) (A) (A) (A) (A) (A) (A) (A)
                 (A) (A) (A) (A) (A) (A) (A) (A) (A) (A) (A) (A)
                 (A) (A) (A) (A) (A) (A) (A) (A) (A) (A) (A) (A)
                 (A) (A) (A) (A) (A) (A) (A) (A) (A) (A) (A) (A)
                 (A) (A) (A) (A) (A) (A) (A) (A) (A) (A) (A) (A)
                 (A) (A) (A) (A) (A) (A) (A) (A) (A) (A) (A) (A)
                 (A) (A) (A) (A) (A) (A) (A) (A) (A) (A) (A) (A)
                 (A) (A) (A) (A) (A) (A) (A) (A) (A) (A) (A) (A)
                 (A) (A) (A) (A) (A) (A) (A) (A) (A) (A) (A) (A)
                 (A) (A) (A) (A) (A) (A) (A) (A) (A) (A) (A) (A)
                 (A) (A) (A) (A) (A) (A) (A) (A) (A) (A) (A) (A)
                 (A) (A) (A) (A) (A) (A) (A) (A) (A) (A) (A) (A)
                 (A) (A) (A) (A) (A) (A) (A) (A) (A) (A) (A) (A)
                 (A) (A) (A) (A) (A) (A) (A) (A) (A) (A) (A) (A)
                 (A) (A) (A) (A) (A) (A) (A) (A) (A) (A) (A) (A)
                 (A) (A) (A) (A) (A) (A) (A) (A) (A) (A) (A) (A)
                 (A) (A) (A) (A) (A) (A) (A) (A) (A) (A) (A) (A)
                 (A) (A) (A) (A) (A) (A) (A) (A) (A) (A) (A) (A)
                 (A) (A) (A) (A) (A) (A) (A) (A) (A) (A) (A) (A)
                 (A) (A) (A) (A) (A) (A) (A) (A) (A) (A) (A) (A)
                 (A) (A) (A) (A) (A) (A) (A) (A) (A) (A) (A) (A)
                 (A) (A) (A) (A) (A) (A) (A) (A) (A) (A) (A) (A)
                 (A) (A) (A) (A) (A) (A) (A) (A) (A) (A) (A) (A)
                 (A) (A) (A) (A) (A) (A) (A) (A) (A) (A) (A) (A)
                 (A) (A) (A) (A) (A) (A) (A) (A) (A) (A) (A) (A)
                 (A) (A) (A) (A) (A) (A) (A) (A) (A) (A) (A) (A)
                 (A) (A) (A) (A) (A) (A) (A) (A) (A) (A) (A) (A)
                 (A) (A) (A) (A) (A) (A) (A) (A) (A) (A) (A) (A)
                 (A) (A) (A) (A) (A) (A) (A) (A) (A) (A) (A) (A)
                 (A) (A) (A) (A) (A) (A) (A) (A) (A) (A) (A) (A)
                 (A) (A) (A) (A) (A) (A) (A) (A) (A) (A) (A) (A)
                 (A) (A) (A) (A) (A) (A) (A) (A) (A) (A) (A) (A)
                 (A) (A) (A) (A) (A) (A) (A) (A) (A) (A) (A) (A)
                 (A) (A) (A) (A) (A) (A) (A) (A) (A) (A) (A) (A)
                 (A) (A) (A) (A) (A) (A) (A) (A) (A) (A) (A) (A)
                 (A) (A) (A) (A) (A) (A) (A) (A) (A) (A) (A) (A)
                 (A) (A) (A) (A) (A) (A) (A) (A) (A) (A) (A) (A)
                 (A) (A) (A) (A) (A) (A) (A) (A) (A) (A) (A) (A)
                 (A) (A) (A) (A) (A) (A) (A) (A) (A) (A) (A) (A)
                 (A) (A) (A) (A) (A) (A) (A) (A) (A) (A) (A) (A)
                 (A) (A) (A) (A) (A) (A) (A) (A) (A) (A) (A) (A)
                 (A) (A) (A) (A) (A) (A) (A) (A) (A) (A) (A) (A)
                 (A) (A) (A) (A) (A) (A) (A) (A) (A) (A) (A) (A)
                 (A) (A) (A) (A) (A) (A) (A) (A) (A) (A) (A) (A)
                 (A) (A) (A) (A) (A) (A) (A) (A) (A) (A) (A) (A)
                 (A) (A) (A) (A) (A) (A) (A) (A) (A) (A) (A) (A)
                 (A) (A) (A) (A) (A) (A) (A) (A) (A) (A) (A) (A)
                 (A) (A) (A) (A) (A) (A) (A) (A) (A) (A) (A) (A)
                 (A) (A) (A) (A) (A) (A) (A) (A) (A) (A) (A) (A)
                 (A) (A) (A) (A) (A) (A) (A) (A) (A) (A) (A) (A)
                 (A) (A) (A) (A) (A) (A) (A) (A) (A) (A) (A) (A)
                 (A) (A) (A) (A) (A) (A) (A) (A) (A) (A) (A) (A)
                 (A) (A) (A) (A) (A) (A) (A) (A) (A) (A) (A) (A)
                 (A) (A) (A) (A) (A) (A) (A) (A) (A) (A) (A) (A)
                 (A) (A) (A) (A) (A) (A) (A) (A) (A) (A) (A) (A)
                 (A) (A) (A) (A) (A) (A) (A) (A) (A) (A) (A) (A)
                 (A) (A) (A) (A) (A) (A) (A) (A) (A) (A) (A) (A)
                 (A) (A) (A) (A) (A) (A) (A) (A) (A) (A) (A) (A)
                 (A) (A) (A) (A) (A) (A) (A) (A) (A) (A) (A) (A)
                 (A) (A) (A) (A) (A) (A) (A) (A) (A) (A) (A) (A)
                 (A) (A) (A) (A) (A) (A) (A) (A) (A) (A) (A) (A)
                 (A) (A) (A) (A) (A) (A) (A) (A) (A) (A) (A) (A)
                 (A) (A) (A) (A) (A) (A) (A) (A) (A) (A) (A) (A)
                 (A) (A) (A) (A) (A) (A) (A) (A) (A) (A) (A) (A)
                 (A) (A) (A) (A) (A) (A) (A) (A) (A) (A) (A) (A)
                 (A) (A) (A) (A) (A) (A) (A) (A) (A) (A) (A) (A)
                 (A) (A) (A) (A) (A) (A) (A) (A) (A) (A) (A) (A)
                 (A) (A) (A) (A) (A) (A) (A) (A) (A) (A) (A) (A)
                 (A) (A) (A) (A) (A) (A) (A) (A) (A) (A) (A) (A)
                 (A) (A) (A) (A) (A) (A) (A) (A) (A) (A) (A) (A)
                 (A) (A) (A) (A) (A) (A) (A) (A) (A) (A) (A) (A)
                 (A) (A) (A) (A) (A) (A) (A) (A) (A) (A) (A) (A)
                 (A) (A) (A) (A) (A) (A) (A) (A) (A) (A) (A) (A)
                 (A) (A) (A) (A) (A) (A) (A) (A) (A) (A) (A) (A)
                 (A) (A) (A) (A) (A) (A) (A) (A) (A) (A) (A) (A)
                 (A) (A) (A) (A) (A) (A) (A) (A) (A) (A) (A) (A)
                 (A) (A) (A) (A) (A) (A) (A) (A) (A) (A) (A) (A)
                 (A) (A) (A) (A) (A) (A) (A) (A) (A) (A) (A) (A)
                 (A) (A) (A) (A) (A) (A) (A) (A) (A) (A) (A) (A)
                 (A) (A) (A) (A) (A) (A) (A) (A) (A) (A) (A) (A)
                 (A) (A) (A) (A) (A) (A) (A) (A) (A) (A) (A) (A)
                 (A) (A) (A) (A) (A) (A) (A) (A) (A) (A) (A) (A)
                 (A) (A) (A) (A) (A) (A) (A) (A) (A) (A) (A) (A)
                 (A) (A) (A) (A) (A) (A) (A) (A) (A) (A) (A) (A)
                 (A) (A) (A) (A) (A) (A) (A) (A) (A) (A) (A) (A)
                 (A) (A) (A) (A) (A) (A) (A) (A) (A) (A) (A) (A)
                 (A) (A) (A) (A) (A) (A) (A) (A) (A) (A) (A) (A)
                 (A) (A) (A) (A) (A) (A) (A) (A) (A) (A) (A) (A)
                 (A) (A) (A) (A) (A) (A) (A) (A) (A) (A) (A) (A)
                 (A) (A) (A) (A) (A) (A) (A) (A) (A) (A) (A) (A)
                 (A) (A) (A) (A) (A) (A) (A) (A) (A) (A) (A) (A)
                 (A) (A) (A) (A) (A) (A) (A) (A) (A) (A) (A) (A)
                 (A) (A) (A) (A) (A) (A) (A) (A) (A) (A) (A) (A)
                 (A) (A) (A) (A) (A) (A) (A) (A) (A) (A) (A) (A)
                 (A) (A) (A) (A) (A) (A) (A) (A) (A) (A) (A) (A)
                 (A) (A) (A) (A) (A) (A) (A) (A) (A) (A) (A) (A)
                 (A) (A) (A) (A) (A) (A) (A) (A) (A) (A) (A) (A)
                 (A) (A) (A) (A) (A) (A) (A) (A) (A) (A) (A) (A)
                 (A) (A) (A) (A) (A) (A) (A) (A) (A) (A) (A) (A)
                 (A) (A) (A) (A) (A) (A) (A) (A) (A) (A) (A) (A)
                 (A) (A) (A) (A) (A) (A) (A) (A) (A) (A) (A) (A)
                 (A) (A) (A) (A) (A) (A) (A) (A) (A) (A) (A) (A)
                 (A) (A) (A) (A) (A) (A) (A) (A) (A) (A) (A) (A)
                 (A) (A) (A) (A) (A) (A) (A) (A) (A) (A) (A) (A)
                 (A) (A) (A) (A) (A) (A) (A) (A) (A) (A) (A) (A)
                 (A) (A) (A) (A) (A) (A) (A) (A) (A) (A) (A) (A)
                 (A) (A) (A) (A) (A) (A) (A) (A) (A) (A) (A) (A)
                 (A) (A) (A) (A) (A) (A) (A) (A) (A) (A) (A) (A)
                 (A) (A) (A) (A) (A) (A) (A) (A) (A) (A) (A) (A)
                 (A) (A) (A) (A) (A) (A) (A) (A) (A) (A) (A) (A)
                 (A) (A) (A) (A) (A) (A) (A) (A) (A) (A) (A) (A)
                 (A) (A) (A) (A) (A) (A) (A) (A) (A) (A) (A) (A)
                 (A) (A) (A) (A) (A) (A) (A) (A) (A) (A) (A) (A)
                 (A) (A) (A) (A) (A) (A) (A) (A) (A) (A) (A) (A)
                 (A) (A) (A) (A) (A) (A) (A) (A) (A) (A) (A) (A)
                 (A) (A) (A) (A) (A) (A) (A) (A) (A) (A) (A) (A)
                 (A) (A) (A) (A) (A) (A) (A) (A) (A) (A) (A) (A)
                 (A) (A) (A) (A) (A) (A) (A) (A) (A) (A) (A) (A)
                 (A) (A) (A) (A) (A) (A) (A) (A) (A) (A) (A) (A)
                 (A) (A) (A) (A) (A) (A) (A) (A) (A) (A) (A) (A)
                 (A) (A) (A) (A) (A) (A) (A) (A) (A) (A) (A) (A)
                 (A) (A) (A) (A) (A) (A) (A) (A) (A) (A) (A) (A)
                 (A) (A) (A) (A) (A) (A) (A) (A) (A) (A) (A) (A)
                 (A) (A) (A) (A) (A) (A) (A) (A) (A) (A) (A) (A)
                 (A) (A) (A) (A) (A) (A) (A) (A) (A) (A) (A) (A)
                 (A) (A) (A) (A) (A) (A) (A) (A) (A) (A) (A) (A)
                 (A) (A) (A) (A) (A) (A) (A) (A) (A) (A) (A) (A)
                 (A) (A) (A) (A) (A) (A) (A) (A) (A) (A) (A) (A)
                 (A) (A) (A) (A) (A) (A) (A) (A) (A)
 Beta  Orbitals:
       Occupied  (A) (A) (A) (A) (A) (A) (A) (A) (A) (A) (A) (A)
                 (A) (A) (A) (A) (A) (A) (A) (A) (A) (A) (A) (A)
                 (A) (A) (A) (A) (A) (A) (A) (A) (A) (A) (A) (A)
                 (A) (A) (A) (A) (A) (A) (A) (A) (A) (A) (A) (A)
                 (A) (A) (A) (A) (A) (A) (A) (A) (A) (A) (A) (A)
                 (A) (A) (A) (A) (A) (A) (A) (A) (A) (A) (A) (A)
                 (A) (A) (A) (A) (A) (A) (A) (A) (A) (A) (A) (A)
                 (A) (A) (A) (A) (A) (A) (A) (A) (A) (A) (A) (A)
                 (A) (A) (A) (A) (A) (A) (A) (A) (A) (A) (A) (A)
                 (A) (A) (A) (A) (A) (A) (A) (A) (A) (A) (A) (A)
                 (A) (A) (A) (A) (A) (A) (A) (A) (A) (A) (A) (A)
                 (A) (A) (A) (A) (A) (A) (A) (A) (A) (A) (A) (A)
                 (A) (A) (A) (A) (A) (A) (A) (A) (A) (A) (A) (A)
                 (A) (A) (A) (A) (A) (A) (A) (A) (A) (A) (A) (A)
       Virtual   (A) (A) (A) (A) (A) (A) (A) (A) (A) (A) (A) (A)
                 (A) (A) (A) (A) (A) (A) (A) (A) (A) (A) (A) (A)
                 (A) (A) (A) (A) (A) (A) (A) (A) (A) (A) (A) (A)
                 (A) (A) (A) (A) (A) (A) (A) (A) (A) (A) (A) (A)
                 (A) (A) (A) (A) (A) (A) (A) (A) (A) (A) (A) (A)
                 (A) (A) (A) (A) (A) (A) (A) (A) (A) (A) (A) (A)
                 (A) (A) (A) (A) (A) (A) (A) (A) (A) (A) (A) (A)
                 (A) (A) (A) (A) (A) (A) (A) (A) (A) (A) (A) (A)
                 (A) (A) (A) (A) (A) (A) (A) (A) (A) (A) (A) (A)
                 (A) (A) (A) (A) (A) (A) (A) (A) (A) (A) (A) (A)
                 (A) (A) (A) (A) (A) (A) (A) (A) (A) (A) (A) (A)
                 (A) (A) (A) (A) (A) (A) (A) (A) (A) (A) (A) (A)
                 (A) (A) (A) (A) (A) (A) (A) (A) (A) (A) (A) (A)
                 (A) (A) (A) (A) (A) (A) (A) (A) (A) (A) (A) (A)
                 (A) (A) (A) (A) (A) (A) (A) (A) (A) (A) (A) (A)
                 (A) (A) (A) (A) (A) (A) (A) (A) (A) (A) (A) (A)
                 (A) (A) (A) (A) (A) (A) (A) (A) (A) (A) (A) (A)
                 (A) (A) (A) (A) (A) (A) (A) (A) (A) (A) (A) (A)
                 (A) (A) (A) (A) (A) (A) (A) (A) (A) (A) (A) (A)
                 (A) (A) (A) (A) (A) (A) (A) (A) (A) (A) (A) (A)
                 (A) (A) (A) (A) (A) (A) (A) (A) (A) (A) (A) (A)
                 (A) (A) (A) (A) (A) (A) (A) (A) (A) (A) (A) (A)
                 (A) (A) (A) (A) (A) (A) (A) (A) (A) (A) (A) (A)
                 (A) (A) (A) (A) (A) (A) (A) (A) (A) (A) (A) (A)
                 (A) (A) (A) (A) (A) (A) (A) (A) (A) (A) (A) (A)
                 (A) (A) (A) (A) (A) (A) (A) (A) (A) (A) (A) (A)
                 (A) (A) (A) (A) (A) (A) (A) (A) (A) (A) (A) (A)
                 (A) (A) (A) (A) (A) (A) (A) (A) (A) (A) (A) (A)
                 (A) (A) (A) (A) (A) (A) (A) (A) (A) (A) (A) (A)
                 (A) (A) (A) (A) (A) (A) (A) (A) (A) (A) (A) (A)
                 (A) (A) (A) (A) (A) (A) (A) (A) (A) (A) (A) (A)
                 (A) (A) (A) (A) (A) (A) (A) (A) (A) (A) (A) (A)
                 (A) (A) (A) (A) (A) (A) (A) (A) (A) (A) (A) (A)
                 (A) (A) (A) (A) (A) (A) (A) (A) (A) (A) (A) (A)
                 (A) (A) (A) (A) (A) (A) (A) (A) (A) (A) (A) (A)
                 (A) (A) (A) (A) (A) (A) (A) (A) (A) (A) (A) (A)
                 (A) (A) (A) (A) (A) (A) (A) (A) (A) (A) (A) (A)
                 (A) (A) (A) (A) (A) (A) (A) (A) (A) (A) (A) (A)
                 (A) (A) (A) (A) (A) (A) (A) (A) (A) (A) (A) (A)
                 (A) (A) (A) (A) (A) (A) (A) (A) (A) (A) (A) (A)
                 (A) (A) (A) (A) (A) (A) (A) (A) (A) (A) (A) (A)
                 (A) (A) (A) (A) (A) (A) (A) (A) (A) (A) (A) (A)
                 (A) (A) (A) (A) (A) (A) (A) (A) (A) (A) (A) (A)
                 (A) (A) (A) (A) (A) (A) (A) (A) (A) (A) (A) (A)
                 (A) (A) (A) (A) (A) (A) (A) (A) (A) (A) (A) (A)
                 (A) (A) (A) (A) (A) (A) (A) (A) (A) (A) (A) (A)
                 (A) (A) (A) (A) (A) (A) (A) (A) (A) (A) (A) (A)
                 (A) (A) (A) (A) (A) (A) (A) (A) (A) (A) (A) (A)
                 (A) (A) (A) (A) (A) (A) (A) (A) (A) (A) (A) (A)
                 (A) (A) (A) (A) (A) (A) (A) (A) (A) (A) (A) (A)
                 (A) (A) (A) (A) (A) (A) (A) (A) (A) (A) (A) (A)
                 (A) (A) (A) (A) (A) (A) (A) (A) (A) (A) (A) (A)
                 (A) (A) (A) (A) (A) (A) (A) (A) (A) (A) (A) (A)
                 (A) (A) (A) (A) (A) (A) (A) (A) (A) (A) (A) (A)
                 (A) (A) (A) (A) (A) (A) (A) (A) (A) (A) (A) (A)
                 (A) (A) (A) (A) (A) (A) (A) (A) (A) (A) (A) (A)
                 (A) (A) (A) (A) (A) (A) (A) (A) (A) (A) (A) (A)
                 (A) (A) (A) (A) (A) (A) (A) (A) (A) (A) (A) (A)
                 (A) (A) (A) (A) (A) (A) (A) (A) (A) (A) (A) (A)
                 (A) (A) (A) (A) (A) (A) (A) (A) (A) (A) (A) (A)
                 (A) (A) (A) (A) (A) (A) (A) (A) (A) (A) (A) (A)
                 (A) (A) (A) (A) (A) (A) (A) (A) (A) (A) (A) (A)
                 (A) (A) (A) (A) (A) (A) (A) (A) (A) (A) (A) (A)
                 (A) (A) (A) (A) (A) (A) (A) (A) (A) (A) (A) (A)
                 (A) (A) (A) (A) (A) (A) (A) (A) (A) (A) (A) (A)
                 (A) (A) (A) (A) (A) (A) (A) (A) (A) (A) (A) (A)
                 (A) (A) (A) (A) (A) (A) (A) (A) (A) (A) (A) (A)
                 (A) (A) (A) (A) (A) (A) (A) (A) (A) (A) (A) (A)
                 (A) (A) (A) (A) (A) (A) (A) (A) (A) (A) (A) (A)
                 (A) (A) (A) (A) (A) (A) (A) (A) (A) (A) (A) (A)
                 (A) (A) (A) (A) (A) (A) (A) (A) (A) (A) (A) (A)
                 (A) (A) (A) (A) (A) (A) (A) (A) (A) (A) (A) (A)
                 (A) (A) (A) (A) (A) (A) (A) (A) (A) (A) (A) (A)
                 (A) (A) (A) (A) (A) (A) (A) (A) (A) (A) (A) (A)
                 (A) (A) (A) (A) (A) (A) (A) (A) (A) (A) (A) (A)
                 (A) (A) (A) (A) (A) (A) (A) (A) (A) (A) (A) (A)
                 (A) (A) (A) (A) (A) (A) (A) (A) (A) (A) (A) (A)
                 (A) (A) (A) (A) (A) (A) (A) (A) (A) (A) (A) (A)
                 (A) (A) (A) (A) (A) (A) (A) (A) (A) (A) (A) (A)
                 (A) (A) (A) (A) (A) (A) (A) (A) (A) (A) (A) (A)
                 (A) (A) (A) (A) (A) (A) (A) (A) (A) (A) (A) (A)
                 (A) (A) (A) (A) (A) (A) (A) (A) (A) (A) (A) (A)
                 (A) (A) (A) (A) (A) (A) (A) (A) (A) (A) (A) (A)
                 (A) (A) (A) (A) (A) (A) (A) (A) (A) (A) (A) (A)
                 (A) (A) (A) (A) (A) (A) (A) (A) (A) (A) (A) (A)
                 (A) (A) (A) (A) (A) (A) (A) (A) (A) (A) (A) (A)
                 (A) (A) (A) (A) (A) (A) (A) (A) (A) (A) (A) (A)
                 (A) (A) (A) (A) (A) (A) (A) (A) (A) (A) (A) (A)
                 (A) (A) (A) (A) (A) (A) (A) (A) (A) (A) (A) (A)
                 (A) (A) (A) (A) (A) (A) (A) (A) (A) (A) (A) (A)
                 (A) (A) (A) (A) (A) (A) (A) (A) (A) (A) (A) (A)
                 (A) (A) (A) (A) (A) (A) (A) (A) (A) (A) (A) (A)
                 (A) (A) (A) (A) (A) (A) (A) (A) (A) (A) (A) (A)
                 (A) (A) (A) (A) (A) (A) (A) (A) (A) (A) (A) (A)
                 (A) (A) (A) (A) (A) (A) (A) (A) (A) (A) (A) (A)
                 (A) (A) (A) (A) (A) (A) (A) (A) (A) (A) (A) (A)
                 (A) (A) (A) (A) (A) (A) (A) (A) (A) (A) (A) (A)
                 (A) (A) (A) (A) (A) (A) (A) (A) (A) (A) (A) (A)
                 (A) (A) (A) (A) (A) (A) (A) (A) (A) (A) (A) (A)
                 (A) (A) (A) (A) (A) (A) (A) (A) (A) (A) (A) (A)
                 (A) (A) (A) (A) (A) (A) (A) (A) (A) (A) (A) (A)
                 (A) (A) (A) (A) (A) (A) (A) (A) (A) (A) (A) (A)
                 (A) (A) (A) (A) (A) (A) (A) (A) (A) (A) (A) (A)
                 (A) (A) (A) (A) (A) (A) (A) (A) (A) (A) (A) (A)
                 (A) (A) (A) (A) (A) (A) (A) (A) (A) (A) (A) (A)
                 (A) (A) (A) (A) (A) (A) (A) (A) (A) (A) (A) (A)
                 (A) (A) (A) (A) (A) (A) (A) (A) (A) (A) (A) (A)
                 (A) (A) (A) (A) (A) (A) (A) (A) (A) (A) (A) (A)
                 (A) (A) (A) (A) (A) (A) (A) (A) (A) (A) (A) (A)
                 (A) (A) (A) (A) (A) (A) (A) (A) (A) (A) (A) (A)
                 (A) (A) (A) (A) (A) (A) (A) (A) (A) (A) (A) (A)
                 (A) (A) (A) (A) (A) (A) (A) (A) (A) (A) (A) (A)
                 (A) (A) (A) (A) (A) (A) (A) (A) (A) (A) (A) (A)
                 (A) (A) (A) (A) (A) (A) (A) (A) (A) (A) (A) (A)
                 (A) (A) (A) (A) (A) (A) (A) (A) (A) (A) (A) (A)
                 (A) (A) (A) (A) (A) (A) (A) (A) (A) (A) (A) (A)
                 (A) (A) (A) (A) (A) (A) (A) (A) (A) (A) (A) (A)
                 (A) (A) (A) (A) (A) (A) (A) (A) (A) (A) (A) (A)
                 (A) (A) (A) (A) (A) (A) (A) (A) (A) (A) (A) (A)
                 (A) (A) (A) (A) (A) (A) (A) (A) (A) (A) (A) (A)
                 (A) (A) (A) (A) (A) (A) (A) (A) (A) (A) (A) (A)
                 (A) (A) (A) (A) (A) (A) (A) (A) (A) (A) (A) (A)
                 (A) (A) (A) (A) (A) (A) (A) (A) (A) (A) (A) (A)
                 (A) (A) (A) (A) (A) (A) (A) (A) (A) (A) (A) (A)
                 (A) (A) (A) (A) (A) (A) (A) (A) (A) (A) (A) (A)
                 (A) (A) (A) (A) (A) (A) (A) (A) (A) (A) (A) (A)
                 (A) (A) (A) (A) (A) (A) (A) (A) (A) (A) (A) (A)
                 (A) (A) (A) (A) (A) (A) (A) (A) (A) (A) (A) (A)
                 (A) (A) (A) (A) (A) (A) (A) (A) (A) (A) (A) (A)
                 (A) (A) (A) (A) (A) (A) (A) (A) (A) (A) (A) (A)
                 (A) (A) (A) (A) (A) (A) (A) (A) (A) (A) (A) (A)
                 (A) (A) (A) (A) (A) (A) (A) (A) (A) (A) (A) (A)
                 (A) (A) (A) (A) (A) (A) (A) (A) (A) (A) (A) (A)
                 (A) (A) (A) (A) (A) (A) (A) (A) (A) (A) (A) (A)
                 (A) (A) (A) (A) (A) (A) (A) (A) (A) (A) (A) (A)
                 (A) (A) (A) (A) (A) (A) (A) (A) (A) (A) (A) (A)
                 (A) (A) (A) (A) (A) (A) (A) (A) (A) (A) (A) (A)
                 (A) (A) (A) (A) (A) (A) (A) (A) (A) (A) (A) (A)
                 (A) (A) (A) (A) (A) (A) (A) (A) (A) (A) (A) (A)
                 (A) (A) (A) (A) (A) (A) (A) (A) (A) (A) (A) (A)
                 (A) (A) (A) (A) (A) (A) (A) (A) (A) (A) (A) (A)
                 (A) (A) (A) (A) (A) (A) (A) (A) (A) (A) (A) (A)
                 (A) (A) (A) (A) (A) (A) (A) (A) (A) (A) (A) (A)
                 (A) (A) (A) (A) (A) (A) (A) (A) (A) (A) (A) (A)
                 (A) (A) (A) (A) (A) (A) (A) (A) (A) (A) (A) (A)
                 (A) (A) (A) (A) (A) (A) (A) (A) (A) (A) (A) (A)
                 (A) (A) (A) (A) (A) (A) (A) (A) (A) (A) (A) (A)
                 (A) (A) (A) (A) (A) (A) (A) (A) (A) (A) (A) (A)
                 (A) (A) (A) (A) (A) (A) (A) (A) (A) (A) (A) (A)
                 (A) (A) (A) (A) (A) (A) (A) (A) (A) (A) (A) (A)
                 (A) (A) (A) (A) (A) (A) (A) (A) (A) (A)
 The electronic state is 2-A.
 Alpha  occ. eigenvalues --  -25.19114 -25.19045 -19.63423 -19.62580 -19.62545
 Alpha  occ. eigenvalues --  -14.76073 -14.75914 -10.63830 -10.63116 -10.63077
 Alpha  occ. eigenvalues --  -10.57609 -10.57433 -10.57236 -10.57176 -10.57169
 Alpha  occ. eigenvalues --  -10.56952 -10.56799 -10.56352 -10.56141 -10.56027
 Alpha  occ. eigenvalues --  -10.55937 -10.55907 -10.55859 -10.55629 -10.55613
 Alpha  occ. eigenvalues --  -10.55506 -10.55499 -10.55282 -10.55246 -10.55126
 Alpha  occ. eigenvalues --  -10.55071 -10.55019 -10.55014 -10.55012 -10.54870
 Alpha  occ. eigenvalues --  -10.54310 -10.54247 -10.54080 -10.53910 -10.53844
 Alpha  occ. eigenvalues --  -10.53833 -10.53767 -10.53680 -10.52971 -10.52965
 Alpha  occ. eigenvalues --  -10.52629 -10.52612  -7.11403  -1.30896  -1.27666
 Alpha  occ. eigenvalues --   -1.17002  -1.15992  -1.15959  -1.08117  -1.06115
 Alpha  occ. eigenvalues --   -0.98147  -0.97502  -0.97413  -0.92524  -0.91175
 Alpha  occ. eigenvalues --   -0.90937  -0.90317  -0.90155  -0.86925  -0.86729
 Alpha  occ. eigenvalues --   -0.85794  -0.85457  -0.85397  -0.84658  -0.84158
 Alpha  occ. eigenvalues --   -0.83550  -0.79946  -0.79631  -0.77872  -0.77051
 Alpha  occ. eigenvalues --   -0.74437  -0.74304  -0.72525  -0.71165  -0.70962
 Alpha  occ. eigenvalues --   -0.70571  -0.70256  -0.69797  -0.67973  -0.66546
 Alpha  occ. eigenvalues --   -0.65739  -0.65249  -0.64948  -0.64058  -0.62840
 Alpha  occ. eigenvalues --   -0.61887  -0.60616  -0.59700  -0.59234  -0.58608
 Alpha  occ. eigenvalues --   -0.57943  -0.57595  -0.57186  -0.56847  -0.55951
 Alpha  occ. eigenvalues --   -0.55615  -0.54748  -0.54131  -0.53890  -0.53399
 Alpha  occ. eigenvalues --   -0.52565  -0.52175  -0.51954  -0.51593  -0.51390
 Alpha  occ. eigenvalues --   -0.51148  -0.50678  -0.50607  -0.50438  -0.50153
 Alpha  occ. eigenvalues --   -0.49976  -0.49806  -0.49577  -0.49358  -0.49180
 Alpha  occ. eigenvalues --   -0.49040  -0.48639  -0.48536  -0.48521  -0.48372
 Alpha  occ. eigenvalues --   -0.48227  -0.47291  -0.46740  -0.46710  -0.46530
 Alpha  occ. eigenvalues --   -0.45682  -0.45486  -0.45036  -0.44741  -0.44571
 Alpha  occ. eigenvalues --   -0.44450  -0.44387  -0.43781  -0.43672  -0.42981
 Alpha  occ. eigenvalues --   -0.42851  -0.42290  -0.42081  -0.41926  -0.41670
 Alpha  occ. eigenvalues --   -0.41465  -0.40701  -0.40388  -0.40211  -0.39570
 Alpha  occ. eigenvalues --   -0.39340  -0.39077  -0.38674  -0.37679  -0.37401
 Alpha  occ. eigenvalues --   -0.34601  -0.34518  -0.34043  -0.34007  -0.32436
 Alpha  occ. eigenvalues --   -0.32385  -0.32341  -0.31562  -0.31033  -0.29887
 Alpha  occ. eigenvalues --   -0.28821  -0.27825  -0.22942  -0.17740
 Alpha virt. eigenvalues --   -0.06067  -0.05177  -0.03955  -0.00035   0.00716
 Alpha virt. eigenvalues --    0.01113   0.01510   0.02558   0.05692   0.05792
 Alpha virt. eigenvalues --    0.06593   0.06678   0.07342   0.07598   0.08382
 Alpha virt. eigenvalues --    0.08784   0.08956   0.09213   0.09970   0.10264
 Alpha virt. eigenvalues --    0.10448   0.10718   0.10848   0.11014   0.11182
 Alpha virt. eigenvalues --    0.11533   0.11719   0.11795   0.12054   0.12369
 Alpha virt. eigenvalues --    0.12599   0.12883   0.13151   0.13423   0.13777
 Alpha virt. eigenvalues --    0.13949   0.14240   0.14358   0.14680   0.14825
 Alpha virt. eigenvalues --    0.15035   0.15140   0.15501   0.15912   0.16150
 Alpha virt. eigenvalues --    0.16208   0.16459   0.16718   0.17031   0.17269
 Alpha virt. eigenvalues --    0.17585   0.17694   0.17927   0.18090   0.18637
 Alpha virt. eigenvalues --    0.18834   0.18990   0.19230   0.19652   0.19724
 Alpha virt. eigenvalues --    0.20058   0.20463   0.20730   0.20932   0.21028
 Alpha virt. eigenvalues --    0.21078   0.21335   0.21509   0.21952   0.22018
 Alpha virt. eigenvalues --    0.22349   0.22554   0.22617   0.22939   0.23180
 Alpha virt. eigenvalues --    0.23332   0.23825   0.23913   0.24010   0.24582
 Alpha virt. eigenvalues --    0.24666   0.24894   0.25395   0.25465   0.25779
 Alpha virt. eigenvalues --    0.25902   0.26275   0.26605   0.26708   0.26842
 Alpha virt. eigenvalues --    0.26915   0.27412   0.27780   0.27914   0.28133
 Alpha virt. eigenvalues --    0.28253   0.28595   0.28748   0.28948   0.29182
 Alpha virt. eigenvalues --    0.29228   0.29458   0.29784   0.30118   0.30445
 Alpha virt. eigenvalues --    0.30542   0.30689   0.31108   0.31169   0.31409
 Alpha virt. eigenvalues --    0.31615   0.31878   0.31995   0.32221   0.32415
 Alpha virt. eigenvalues --    0.32553   0.32925   0.33248   0.33322   0.33463
 Alpha virt. eigenvalues --    0.33694   0.33752   0.33877   0.34375   0.34529
 Alpha virt. eigenvalues --    0.34662   0.34832   0.35036   0.35330   0.35408
 Alpha virt. eigenvalues --    0.35536   0.35851   0.36100   0.36207   0.36488
[...]
 
              Baa    -0.0024    -0.325    -0.116    -0.108 -0.3134 -0.0623  0.9476
    20 C(13)  Bbb     0.0009     0.119     0.042     0.040  0.9495 -0.0363  0.3116
              Bcc     0.0015     0.206     0.073     0.069  0.0150  0.9974  0.0705
 
              Baa    -0.0046    -0.621    -0.222    -0.207 -0.2726  0.2157  0.9376
    21 C(13)  Bbb     0.0018     0.243     0.087     0.081 -0.5363  0.7750 -0.3342
              Bcc     0.0028     0.378     0.135     0.126  0.7988  0.5940  0.0956
 
              Baa    -0.0856   -11.488    -4.099    -3.832  0.1612  0.9730  0.1652
    22 C(13)  Bbb    -0.0823   -11.047    -3.942    -3.685  0.9805 -0.1770  0.0858
              Bcc     0.1679    22.535     8.041     7.517 -0.1128 -0.1482  0.9825
 
              Baa    -0.0638    -8.556    -3.053    -2.854 -0.1667 -0.2441  0.9553
    23 C(13)  Bbb     0.0253     3.396     1.212     1.133  0.0786  0.9625  0.2596
              Bcc     0.0384     5.159     1.841     1.721  0.9829 -0.1184  0.1413
 
              Baa    -0.0866   -11.618    -4.146    -3.876  0.7656  0.5168  0.3831
    24 C(13)  Bbb    -0.0795   -10.666    -3.806    -3.558 -0.6094  0.7734  0.1746
              Bcc     0.1661    22.285     7.952     7.433 -0.2061 -0.3671  0.9071
 
              Baa    -0.0274    -3.674    -1.311    -1.226 -0.2128 -0.3858  0.8977
    25 C(13)  Bbb     0.0100     1.336     0.477     0.446  0.5471  0.7142  0.4367
              Bcc     0.0174     2.338     0.834     0.780  0.8096 -0.5840 -0.0591
 
              Baa    -0.0210    -2.812    -1.003    -0.938  0.4006  0.7896  0.4649
    26 C(13)  Bbb    -0.0191    -2.564    -0.915    -0.855  0.8921 -0.4519 -0.0011
              Bcc     0.0401     5.376     1.918     1.793 -0.2092 -0.4151  0.8854
 
              Baa    -0.0183    -2.454    -0.876    -0.818 -0.2096 -0.4046  0.8902
    27 C(13)  Bbb     0.0075     1.000     0.357     0.333  0.2554  0.8561  0.4493
              Bcc     0.0108     1.454     0.519     0.485  0.9439 -0.3215  0.0761
 
              Baa    -0.0294    -3.944    -1.407    -1.316  0.4177  0.7867  0.4547
    28 C(13)  Bbb    -0.0254    -3.406    -1.215    -1.136  0.8819 -0.4713  0.0053
              Bcc     0.0548     7.350     2.623     2.452 -0.2185 -0.3988  0.8906
 
              Baa    -0.0020    -0.272    -0.097    -0.091  0.7847  0.4893  0.3805
    29 C(13)  Bbb     0.0002     0.023     0.008     0.008 -0.2344 -0.3340  0.9130
              Bcc     0.0019     0.249     0.089     0.083 -0.5738  0.8056  0.1474
 
              Baa    -0.0597     4.320     1.542     1.441 -0.2831  0.8984  0.3358
    30 O(17)  Bbb    -0.0560     4.055     1.447     1.353  0.9339  0.1786  0.3096
              Bcc     0.1157    -8.375    -2.989    -2.794 -0.2182 -0.4013  0.8896
 
              Baa    -0.0157    -2.109    -0.752    -0.703 -0.2268 -0.3921  0.8915
    31 C(13)  Bbb     0.0058     0.773     0.276     0.258  0.5312  0.7174  0.4507
              Bcc     0.0100     1.335     0.477     0.445  0.8163 -0.5758 -0.0455
 
              Baa    -0.0248    -3.333    -1.189    -1.112  0.4212  0.7826  0.4585
    32 C(13)  Bbb    -0.0213    -2.864    -1.022    -0.955  0.8777 -0.4792  0.0116
              Bcc     0.0462     6.197     2.211     2.067 -0.2288 -0.3975  0.8886
 
              Baa    -0.0570    -2.197    -0.784    -0.733  0.0266  0.9964  0.0810
    33 N(14)  Bbb    -0.0459    -1.769    -0.631    -0.590  0.9880 -0.0386  0.1495
              Bcc     0.1028     3.966     1.415     1.323 -0.1521 -0.0760  0.9854
 
              Baa    -0.0029    -0.497    -0.177    -0.166 -0.0810 -0.3820  0.9206
    34 B(11)  Bbb    -0.0001    -0.013    -0.005    -0.004  0.9645  0.2029  0.1691
              Bcc     0.0030     0.510     0.182     0.170 -0.2514  0.9016  0.3520
 
              Baa    -0.0136    -6.828    -2.436    -2.278 -0.1831  0.9821 -0.0441
    35 F(19)  Bbb    -0.0120    -6.034    -2.153    -2.013 -0.3237 -0.0179  0.9460
              Bcc     0.0256    12.863     4.590     4.291  0.9283  0.1875  0.3211
 
              Baa    -0.0087    -4.353    -1.553    -1.452  0.3470  0.1569  0.9246
    36 F(19)  Bbb    -0.0046    -2.292    -0.818    -0.765 -0.3544  0.9347 -0.0256
              Bcc     0.0132     6.646     2.371     2.217  0.8683  0.3188 -0.3800
 
              Baa    -0.0590    -2.276    -0.812    -0.759  0.0856  0.9957  0.0364
    37 N(14)  Bbb    -0.0491    -1.893    -0.675    -0.631  0.9822 -0.0782 -0.1706
              Bcc     0.1081     4.169     1.488     1.391  0.1671 -0.0504  0.9847
 
              Baa    -0.0865   -11.609    -4.142    -3.872 -0.4532  0.8803  0.1405
    38 C(13)  Bbb    -0.0831   -11.154    -3.980    -3.721  0.8826  0.4652 -0.0676
              Bcc     0.1696    22.763     8.122     7.593  0.1249 -0.0933  0.9878
 
              Baa    -0.0576    -7.735    -2.760    -2.580  0.1501 -0.1473  0.9776
    39 C(13)  Bbb     0.0227     3.050     1.088     1.017 -0.4577  0.8661  0.2008
              Bcc     0.0349     4.685     1.672     1.563  0.8764  0.4776 -0.0626
 
              Baa    -0.0788   -10.579    -3.775    -3.529  0.2989  0.9492  0.0978
    40 C(13)  Bbb    -0.0735    -9.863    -3.519    -3.290  0.9441 -0.2793 -0.1752
              Bcc     0.1523    20.443     7.294     6.819  0.1390 -0.1447  0.9797
 
              Baa    -0.0257    -3.449    -1.231    -1.151  0.1390 -0.1422  0.9800
    41 C(13)  Bbb     0.0097     1.298     0.463     0.433  0.0232  0.9898  0.1404
              Bcc     0.0160     2.152     0.768     0.718  0.9900 -0.0032 -0.1409
 
              Baa    -0.0228    -3.065    -1.094    -1.022 -0.3873  0.9044  0.1791
    42 C(13)  Bbb    -0.0210    -2.816    -1.005    -0.939  0.9099  0.4062 -0.0838
              Bcc     0.0438     5.881     2.098     1.962  0.1485 -0.1306  0.9802
 
              Baa    -0.0174    -2.330    -0.831    -0.777  0.1481 -0.1344  0.9798
    43 C(13)  Bbb     0.0069     0.920     0.328     0.307 -0.3812  0.9064  0.1820
              Bcc     0.0105     1.410     0.503     0.470  0.9126  0.4004 -0.0830
 
              Baa    -0.0271    -3.641    -1.299    -1.215 -0.1888  0.9676  0.1677
    44 C(13)  Bbb    -0.0235    -3.157    -1.126    -1.053  0.9713  0.2092 -0.1135
              Bcc     0.0507     6.798     2.426     2.268  0.1449 -0.1414  0.9793
 
              Baa    -0.0020    -0.265    -0.095    -0.088 -0.6136  0.7585  0.2193
    45 C(13)  Bbb     0.0003     0.035     0.013     0.012  0.1479 -0.1624  0.9756
              Bcc     0.0017     0.230     0.082     0.077  0.7756  0.6311 -0.0125
 
              Baa    -0.0553     4.003     1.428     1.335  0.5301  0.8469  0.0416
    46 O(17)  Bbb    -0.0520     3.762     1.342     1.255  0.8350 -0.5130 -0.1989
              Bcc     0.1073    -7.766    -2.771    -2.590  0.1471 -0.1402  0.9791
 
              Baa    -0.0144    -1.936    -0.691    -0.646  0.1472 -0.1374  0.9795
    47 C(13)  Bbb     0.0056     0.750     0.268     0.250 -0.0481  0.9881  0.1458
              Bcc     0.0088     1.186     0.423     0.396  0.9879  0.0686 -0.1389
 
              Baa    -0.0195    -2.620    -0.935    -0.874 -0.2030  0.9652  0.1648
    48 C(13)  Bbb    -0.0167    -2.243    -0.800    -0.748  0.9681  0.2231 -0.1140
              Bcc     0.0362     4.863     1.735     1.622  0.1468 -0.1364  0.9797
 
              Baa    -0.0016    -0.870    -0.310    -0.290 -0.3773  0.2362  0.8955
    49 H(1)   Bbb    -0.0000    -0.006    -0.002    -0.002  0.7813  0.6004  0.1708
              Bcc     0.0016     0.876     0.312     0.292 -0.4973  0.7641 -0.4110
 
              Baa    -0.0005    -0.292    -0.104    -0.098 -0.0116  0.1763  0.9843
    50 H(1)   Bbb    -0.0001    -0.033    -0.012    -0.011  0.8036  0.5874 -0.0957
              Bcc     0.0006     0.326     0.116     0.109 -0.5951  0.7898 -0.1486
 
              Baa    -0.0010    -0.555    -0.198    -0.185  0.2687  0.2598  0.9275
    51 H(1)   Bbb    -0.0000    -0.001    -0.000    -0.000  0.9611 -0.0085 -0.2760
              Bcc     0.0010     0.556     0.198     0.185 -0.0638  0.9656 -0.2520
 
              Baa    -0.0009    -0.470    -0.168    -0.157  0.1403 -0.1801  0.9736
    52 H(1)   Bbb    -0.0002    -0.116    -0.041    -0.039  0.9802 -0.1131 -0.1622
              Bcc     0.0011     0.585     0.209     0.195  0.1393  0.9771  0.1606
 
              Baa    -0.0013    -0.698    -0.249    -0.233  0.3645 -0.1434  0.9201
    53 H(1)   Bbb    -0.0004    -0.213    -0.076    -0.071  0.7735  0.5968 -0.2134
              Bcc     0.0017     0.911     0.325     0.304 -0.5185  0.7895  0.3284
 
              Baa    -0.0022    -1.169    -0.417    -0.390  0.3479 -0.2070  0.9144
    54 H(1)   Bbb    -0.0004    -0.223    -0.080    -0.074  0.5631  0.8259 -0.0273
              Bcc     0.0026     1.392     0.497     0.464  0.7496 -0.5244 -0.4039
 
              Baa    -0.0019    -0.990    -0.353    -0.330 -0.3040 -0.0841  0.9489
    55 H(1)   Bbb    -0.0007    -0.387    -0.138    -0.129  0.5217  0.8188  0.2397
              Bcc     0.0026     1.376     0.491     0.459  0.7971 -0.5679  0.2051
 
              Baa    -0.0015    -0.774    -0.276    -0.258  0.5173  0.0616  0.8536
    56 H(1)   Bbb    -0.0012    -0.616    -0.220    -0.206  0.6675  0.5952 -0.4475
              Bcc     0.0026     1.391     0.496     0.464 -0.5356  0.8012  0.2668
 
              Baa    -0.0029    -1.545    -0.551    -0.515  0.2152  0.7560  0.6181
    57 H(1)   Bbb    -0.0009    -0.471    -0.168    -0.157  0.8630 -0.4435  0.2420
              Bcc     0.0038     2.016     0.720     0.673 -0.4571 -0.4814  0.7479
 
              Baa    -0.0008    -0.438    -0.156    -0.146  0.0669  0.8611  0.5040
    58 H(1)   Bbb    -0.0004    -0.227    -0.081    -0.076  0.2520 -0.5034  0.8265
              Bcc     0.0012     0.666     0.238     0.222  0.9654  0.0717 -0.2507
 
              Baa    -0.0005    -0.255    -0.091    -0.085  0.2071  0.5158  0.8313
    59 H(1)   Bbb    -0.0004    -0.187    -0.067    -0.062 -0.2593  0.8483 -0.4617
              Bcc     0.0008     0.442     0.158     0.148  0.9433  0.1200 -0.3095
 
              Baa    -0.0008    -0.449    -0.160    -0.150 -0.0251  0.8145  0.5797
    60 H(1)   Bbb    -0.0004    -0.229    -0.082    -0.076 -0.2322 -0.5687  0.7891
              Bcc     0.0013     0.678     0.242     0.226  0.9724 -0.1148  0.2034
 
              Baa    -0.0028    -1.520    -0.543    -0.507 -0.1600  0.7613  0.6284
    61 H(1)   Bbb    -0.0009    -0.501    -0.179    -0.167  0.8628  0.4171 -0.2857
              Bcc     0.0038     2.022     0.721     0.674  0.4796 -0.4965  0.7235
 
              Baa    -0.0019    -1.027    -0.367    -0.343  0.3218 -0.1617  0.9329
    62 H(1)   Bbb    -0.0007    -0.392    -0.140    -0.131 -0.4440  0.8445  0.2995
              Bcc     0.0027     1.419     0.506     0.473  0.8362  0.5106 -0.2000
 
              Baa    -0.0015    -0.807    -0.288    -0.269 -0.6484  0.2394  0.7227
    63 H(1)   Bbb    -0.0012    -0.656    -0.234    -0.219  0.4829 -0.6046  0.6335
              Bcc     0.0027     1.463     0.522     0.488  0.5886  0.7597  0.2764
 
              Baa    -0.0023    -1.201    -0.429    -0.401 -0.3628 -0.2001  0.9101
    64 H(1)   Bbb    -0.0005    -0.247    -0.088    -0.082 -0.4878  0.8729 -0.0025
              Bcc     0.0027     1.448     0.517     0.483  0.7940  0.4449  0.4143
 
              Baa    -0.0008    -0.422    -0.151    -0.141  0.0500 -0.0767  0.9958
    65 H(1)   Bbb    -0.0003    -0.184    -0.066    -0.061  0.9961  0.0758 -0.0441
              Bcc     0.0011     0.606     0.216     0.202 -0.0721  0.9942  0.0802
 
              Baa    -0.0009    -0.492    -0.176    -0.164 -0.4626  0.0611  0.8845
    66 H(1)   Bbb    -0.0006    -0.327    -0.117    -0.109  0.8365 -0.3003  0.4583
              Bcc     0.0015     0.820     0.292     0.273  0.2936  0.9519  0.0878
 
              Baa    -0.0004    -0.231    -0.082    -0.077 -0.2126 -0.4247  0.8800
    67 H(1)   Bbb    -0.0000    -0.007    -0.003    -0.002  0.9274 -0.3713  0.0449
              Bcc     0.0004     0.239     0.085     0.080  0.3076  0.8257  0.4728
 
              Baa    -0.0011    -0.593    -0.211    -0.198 -0.6088 -0.3862  0.6930
    68 H(1)   Bbb    -0.0004    -0.224    -0.080    -0.075  0.7853 -0.4172  0.4574
              Bcc     0.0015     0.817     0.292     0.273  0.1124  0.8227  0.5573
 
              Baa    -0.0011    -0.574    -0.205    -0.192  0.2527 -0.4898  0.8344
    69 H(1)   Bbb    -0.0001    -0.079    -0.028    -0.026  0.9672  0.1056 -0.2309
              Bcc     0.0012     0.653     0.233     0.218  0.0249  0.8654  0.5005
 
              Baa    -0.0038    -2.001    -0.714    -0.667  0.3502  0.9130 -0.2090
    70 H(1)   Bbb    -0.0018    -0.952    -0.340    -0.317  0.0139  0.2181  0.9758
              Bcc     0.0055     2.953     1.054     0.985  0.9366 -0.3447  0.0637
 
              Baa    -0.0094    -5.039    -1.798    -1.681  0.9808 -0.0107  0.1946
    71 H(1)   Bbb    -0.0017    -0.930    -0.332    -0.310 -0.1866 -0.3383  0.9224
              Bcc     0.0112     5.969     2.130     1.991 -0.0560  0.9410  0.3338
 
              Baa    -0.0016    -0.827    -0.295    -0.276 -0.6302  0.7496  0.2023
    72 H(1)   Bbb    -0.0011    -0.575    -0.205    -0.192 -0.1733 -0.3898  0.9044
              Bcc     0.0026     1.402     0.500     0.468  0.7569  0.5349  0.3756
 
              Baa    -0.0010    -0.552    -0.197    -0.184 -0.2184 -0.3324  0.9175
    73 H(1)   Bbb    -0.0007    -0.353    -0.126    -0.118  0.0852  0.9301  0.3572
              Bcc     0.0017     0.904     0.323     0.302  0.9721 -0.1561  0.1748
 
              Baa    -0.0008    -0.434    -0.155    -0.145 -0.2663 -0.0727  0.9611
    74 H(1)   Bbb    -0.0007    -0.380    -0.136    -0.127 -0.0803  0.9954  0.0530
              Bcc     0.0015     0.814     0.290     0.271  0.9605  0.0631  0.2709
 
              Baa    -0.0010    -0.558    -0.199    -0.186 -0.2137 -0.3500  0.9120
    75 H(1)   Bbb    -0.0005    -0.274    -0.098    -0.091  0.5964  0.6927  0.4056
              Bcc     0.0016     0.832     0.297     0.278  0.7737 -0.6306 -0.0608
 
              Baa    -0.0015    -0.810    -0.289    -0.270 -0.3847 -0.3485  0.8547
    76 H(1)   Bbb    -0.0013    -0.688    -0.246    -0.230  0.9161 -0.0312  0.3996
              Bcc     0.0028     1.499     0.535     0.500 -0.1126  0.9368  0.3313
 
              Baa    -0.0031    -1.643    -0.586    -0.548 -0.0060  0.2358  0.9718
    77 H(1)   Bbb    -0.0026    -1.400    -0.499    -0.467 -0.3860  0.8959 -0.2198
              Bcc     0.0057     3.042     1.086     1.015  0.9225  0.3764 -0.0857
 
              Baa    -0.0088    -4.696    -1.675    -1.566  0.8411  0.5394 -0.0399
    78 H(1)   Bbb    -0.0015    -0.794    -0.283    -0.265  0.1340 -0.1364  0.9816
              Bcc     0.0103     5.489     1.959     1.831 -0.5240  0.8309  0.1870
 
              Baa    -0.0022    -1.181    -0.421    -0.394  0.9121 -0.3531 -0.2085
    79 H(1)   Bbb    -0.0013    -0.676    -0.241    -0.226  0.1843 -0.1013  0.9776
              Bcc     0.0035     1.857     0.663     0.620  0.3663  0.9301  0.0273
 
              Baa    -0.0010    -0.552    -0.197    -0.184  0.1223 -0.0590  0.9907
    80 H(1)   Bbb    -0.0006    -0.342    -0.122    -0.114 -0.5308  0.8396  0.1155
              Bcc     0.0017     0.894     0.319     0.298  0.8387  0.5400 -0.0714
 
              Baa    -0.0008    -0.410    -0.146    -0.137  0.2080 -0.0045  0.9781
    81 H(1)   Bbb    -0.0006    -0.325    -0.116    -0.109  0.3913  0.9169 -0.0790
              Bcc     0.0014     0.735     0.262     0.245  0.8964 -0.3992 -0.1925
 
              Baa    -0.0010    -0.524    -0.187    -0.175  0.1477 -0.1212  0.9816
    82 H(1)   Bbb    -0.0004    -0.239    -0.085    -0.080  0.0895  0.9900  0.1087
              Bcc     0.0014     0.762     0.272     0.254  0.9850 -0.0718 -0.1571
 
              Baa    -0.0013    -0.700    -0.250    -0.233  0.1433 -0.1379  0.9800
    83 H(1)   Bbb    -0.0008    -0.416    -0.148    -0.139  0.8415  0.5382 -0.0473
              Bcc     0.0021     1.116     0.398     0.372 -0.5210  0.8314  0.1931
 

 ---------------------------------------------------------------------------------

 No NMR shielding tensors so no spin-rotation constants.
 Leave Link  601 at Thu Nov  6 03:07:51 2025, MaxMem= 30870077440 cpu:             330.3 elap:               5.6
 (Enter /public/software/gauss/g16/l9999.exe)
 1\1\GINC-CU015\SP\UM062X\def2TZVPP\C40H35B1F2N2O3(1-,2)\BAIDING\06-Nov
 -2025\0\\#p M062X/DEF2TZVPP scrf=(solvent=water) em=GD3\\Energy calcul
 ation for M100024798_reduced\\-1,2\C,0,-1.456589,5.556096,0.761619\C,0
 ,-1.502499,4.803849,-0.580264\C,0,-1.546357,3.306232,-0.429567\C,0,-2.
 703503,2.520608,-0.459722\C,0,-4.089401,3.038612,-0.719152\C,0,-2.2998
 19,1.161532,-0.235296\C,0,-3.046717,-0.043225,-0.153623\C,0,-4.533783,
 -0.003156,-0.18307\C,0,-5.241728,-0.512716,-1.285776\C,0,-6.631997,-0.
 473994,-1.31416\C,0,-7.346609,0.066963,-0.23401\C,0,-8.812987,0.090839
 ,-0.282765\O,0,-9.537759,0.532299,0.6068\C,0,-6.646555,0.574029,0.8752
 58\C,0,-5.259781,0.542793,0.89544\C,0,-2.375724,-1.286752,-0.022254\C,
 0,-2.886109,-2.596745,0.2634\C,0,-4.307953,-3.013133,0.515532\C,0,-1.7
 89063,-3.45607,0.31945\C,0,-1.830007,-4.934522,0.609014\C,0,-1.641549,
 -5.270875,2.09873\C,0,-0.611536,-2.690119,0.078959\C,0,0.693661,-3.263
 935,0.023614\C,0,1.889324,-2.739554,-0.394044\C,0,3.154574,-3.44003,-0
 .389118\C,0,3.345155,-4.742977,0.151121\C,0,4.581511,-5.356109,0.11952
 7\C,0,5.698597,-4.703533,-0.44795\C,0,7.010137,-5.332416,-0.486587\O,0
 ,7.276986,-6.455801,-0.046126\C,0,5.527225,-3.411358,-0.981124\C,0,4.2
 87525,-2.796064,-0.950509\N,0,-0.989014,-1.365794,-0.112418\B,0,-0.061
 387,-0.137347,-0.186145\F,0,0.662264,-0.122362,-1.405584\F,0,0.870548,
 -0.171687,0.874091\N,0,-0.924774,1.138506,-0.099527\C,0,-0.437974,2.43
 9052,-0.197325\C,0,0.95796,2.690128,-0.035959\C,0,1.63888,3.877531,-0.
 108905\C,0,3.065841,4.032653,0.078121\C,0,3.954564,2.961939,0.360305\C
 ,0,5.308965,3.188053,0.529526\C,0,5.848028,4.486691,0.425839\C,0,7.277
 168,4.691926,0.609766\O,0,7.855364,5.781809,0.540337\C,0,4.977324,5.56
 0152,0.143747\C,0,3.624735,5.335935,-0.024802\H,0,-0.577264,5.275537,1
 .349859\H,0,-1.42267,6.638756,0.599084\H,0,-2.344768,5.331866,1.361523
 \H,0,-2.387761,5.134136,-1.132651\H,0,-0.646252,5.095993,-1.196612\H,0
 ,-4.652651,2.381761,-1.386543\H,0,-4.679301,3.142435,0.198651\H,0,-4.0
 47375,4.02527,-1.187416\H,0,-4.692545,-0.930835,-2.123278\H,0,-7.17317
 6,-0.860552,-2.173811\H,0,-9.256019,-0.329809,-1.205996\H,0,-7.203335,
 0.984669,1.711606\H,0,-4.720484,0.931454,1.753474\H,0,-4.897678,-3.084
 324,-0.405448\H,0,-4.334849,-3.993828,0.996772\H,0,-4.830067,-2.311816
 ,1.171675\H,0,-2.786951,-5.343272,0.268778\H,0,-1.061424,-5.451211,0.0
 24615\H,0,-1.682113,-6.35327,2.261871\H,0,-0.675232,-4.909159,2.465387
 \H,0,-2.423596,-4.807283,2.709275\H,0,0.696247,-4.302474,0.342178\H,0,
 1.918976,-1.735032,-0.796049\H,0,2.510946,-5.266692,0.606112\H,0,4.710
 412,-6.350314,0.536627\H,0,7.805292,-4.721122,-0.957043\H,0,6.380495,-
 2.89869,-1.418454\H,0,4.168764,-1.798783,-1.36474\H,0,1.536462,1.80453
 ,0.200394\H,0,1.109681,4.79991,-0.317575\H,0,3.57585,1.948944,0.445619
 \H,0,5.973629,2.355192,0.745924\H,0,7.855465,3.772701,0.827897\H,0,5.3
 8454,6.563309,0.061734\H,0,2.962568,6.169744,-0.241682\\Version=ES64L-
 G16RevA.03\State=2-A\HF=-2105.3435595\S2=0.810881\S2-1=0.\S2A=0.752802
 \RMSD=2.327e-09\Dipole=-4.2323739,-0.0948363,-0.9196096\Quadrupole=-54
 .5079209,0.4292963,54.0786245,7.400498,8.5225144,-3.3814962\PG=C01 [X(
 C40H35B1F2N2O3)]\\@


 THE SOLUTION TO A PROBLEM CHANGES THE PROBLEM.

                                 -- JOHN PEERS
           PAUL DICKSON'S "THE OFFICIAL RULES"
 Job cpu time:       1 days 21 hours 51 minutes 13.6 seconds.
 Elapsed time:       0 days  0 hours 43 minutes 29.7 seconds.
 File lengths (MBytes):  RWF=   4175 Int=      0 D2E=      0 Chk=    272 Scr=      1
 Normal termination of Gaussian 16 at Thu Nov  6 03:07:52 2025.
