 Entering Gaussian System, Link 0=g16
 Input=M100033923_reduced_sp.gjf
 Output=M100033923_reduced_sp.log
 Initial command:
 /public/software/gauss/g16/l1.exe "/public/home/baiding/1101_v2_sp/tmp_M100033923_reduced_sp_1568608/Gau-4169917.inp" -scrdir="/public/home/baiding/1101_v2_sp/tmp_M100033923_reduced_sp_1568608/"
 Entering Link 1 = /public/software/gauss/g16/l1.exe PID=   4169918.
  
 Copyright (c) 1988,1990,1992,1993,1995,1998,2003,2009,2016,
            Gaussian, Inc.  All Rights Reserved.
  
 This is part of the Gaussian(R) 16 program.  It is based on
 the Gaussian(R) 09 system (copyright 2009, Gaussian, Inc.),
 the Gaussian(R) 03 system (copyright 2003, Gaussian, Inc.),
 the Gaussian(R) 98 system (copyright 1998, Gaussian, Inc.),
 the Gaussian(R) 94 system (copyright 1995, Gaussian, Inc.),
 the Gaussian 92(TM) system (copyright 1992, Gaussian, Inc.),
 the Gaussian 90(TM) system (copyright 1990, Gaussian, Inc.),
 the Gaussian 88(TM) system (copyright 1988, Gaussian, Inc.),
 the Gaussian 86(TM) system (copyright 1986, Carnegie Mellon
 University), and the Gaussian 82(TM) system (copyright 1983,
 Carnegie Mellon University). Gaussian is a federally registered
 trademark of Gaussian, Inc.
  
 This software contains proprietary and confidential information,
 including trade secrets, belonging to Gaussian, Inc.
  
 This software is provided under written license and may be
 used, copied, transmitted, or stored only in accord with that
 written license.
  
 The following legend is applicable only to US Government
 contracts under FAR:
  
                    RESTRICTED RIGHTS LEGEND
  
 Use, reproduction and disclosure by the US Government is
 subject to restrictions as set forth in subparagraphs (a)
 and (c) of the Commercial Computer Software - Restricted
 Rights clause in FAR 52.227-19.
  
 Gaussian, Inc.
 340 Quinnipiac St., Bldg. 40, Wallingford CT 06492
  
  
 ---------------------------------------------------------------
 Warning -- This program may not be used in any manner that
 competes with the business of Gaussian, Inc. or will provide
 assistance to any competitor of Gaussian, Inc.  The licensee
 of this program is prohibited from giving any competitor of
 Gaussian, Inc. access to this program.  By using this program,
 the user acknowledges that Gaussian, Inc. is engaged in the
 business of creating and licensing software in the field of
 computational chemistry and represents and warrants to the
 licensee that it is not a competitor of Gaussian, Inc. and that
 it will not use this program in any manner prohibited above.
 ---------------------------------------------------------------
  

 Cite this work as:
 Gaussian 16, Revision A.03,
 M. J. Frisch, G. W. Trucks, H. B. Schlegel, G. E. Scuseria, 
 M. A. Robb, J. R. Cheeseman, G. Scalmani, V. Barone, 
 G. A. Petersson, H. Nakatsuji, X. Li, M. Caricato, A. V. Marenich, 
 J. Bloino, B. G. Janesko, R. Gomperts, B. Mennucci, H. P. Hratchian, 
 J. V. Ortiz, A. F. Izmaylov, J. L. Sonnenberg, D. Williams-Young, 
 F. Ding, F. Lipparini, F. Egidi, J. Goings, B. Peng, A. Petrone, 
 T. Henderson, D. Ranasinghe, V. G. Zakrzewski, J. Gao, N. Rega, 
 G. Zheng, W. Liang, M. Hada, M. Ehara, K. Toyota, R. Fukuda, 
 J. Hasegawa, M. Ishida, T. Nakajima, Y. Honda, O. Kitao, H. Nakai, 
 T. Vreven, K. Throssell, J. A. Montgomery, Jr., J. E. Peralta, 
 F. Ogliaro, M. J. Bearpark, J. J. Heyd, E. N. Brothers, K. N. Kudin, 
 V. N. Staroverov, T. A. Keith, R. Kobayashi, J. Normand, 
 K. Raghavachari, A. P. Rendell, J. C. Burant, S. S. Iyengar, 
 J. Tomasi, M. Cossi, J. M. Millam, M. Klene, C. Adamo, R. Cammi, 
 J. W. Ochterski, R. L. Martin, K. Morokuma, O. Farkas, 
 J. B. Foresman, and D. J. Fox, Gaussian, Inc., Wallingford CT, 2016.
 
 ******************************************
 Gaussian 16:  ES64L-G16RevA.03 25-Dec-2016
                 6-Nov-2025 
 ******************************************
 %nprocshared=64
 Will use up to   64 processors via shared memory.
 %mem=230GB
 %chk=M100033923_reduced_sp.chk
 ----------------------------------------------
 #p M062X/DEF2TZVPP scrf=(solvent=water) em=GD3
 ----------------------------------------------
 1/38=1,172=1/1;
 2/12=2,17=6,18=5,40=1/2;
 3/5=44,7=202,11=2,25=1,30=1,70=2201,72=1,74=-55,124=31/1,2,3;
 4//1;
 5/5=2,38=5,53=1/2;
 6/7=2,8=2,9=2,10=2,28=1/1;
 99/5=1,9=1/99;
 Leave Link    1 at Thu Nov  6 18:26:33 2025, MaxMem= 30870077440 cpu:              14.6 elap:               0.2
 (Enter /public/software/gauss/g16/l101.exe)
 -----------------------------------------
 Energy calculation for M100033923_reduced
 -----------------------------------------
 Symbolic Z-matrix:
 Charge = -1 Multiplicity = 2
 C                     9.6882    1.64037   1.061 
 O                     8.99899   0.71022   0.2223 
 C                     7.62485   0.74971   0.21556 
 C                     6.85254   1.6431    0.96484 
 C                     5.45895   1.58459   0.88149 
 C                     4.79923   0.65448   0.06256 
 C                     3.32506   0.65407  -0.02903 
 C                     2.45239  -0.44946  -0.12824 
 C                     2.80869  -1.88209  -0.07335 
 C                     2.41051  -2.79963  -1.05806 
 C                     2.79279  -4.14188  -1.00852 
 C                     3.59806  -4.59458   0.04258 
 O                     4.03337  -5.8886    0.18862 
 C                     3.63433  -6.84406  -0.79783 
 C                     4.00844  -3.69464   1.03694 
 C                     3.61865  -2.36312   0.97542 
 N                     1.1544    0.02068  -0.23207 
 C                     1.18241   1.41246  -0.20133 
 C                     2.52285   1.81251  -0.06691 
 C                    -0.01812   2.18736  -0.19578 
 C                     0.05147   3.65265  -0.21977 
 C                     0.9337    4.32441  -1.10076 
 C                     1.0106    5.70757  -1.13894 
 C                     0.20216   6.48137  -0.28325 
 C                     0.27763   7.90419  -0.31528 
 N                     0.33976   9.07048  -0.34146 
 C                    -0.67954   5.83643   0.60557 
 C                    -0.75022   4.45214   0.63047 
 C                    -1.27775   1.51286  -0.11408 
 C                    -2.5863    2.01086  -0.06594 
 C                    -3.47051   0.90888   0.00922 
 C                    -4.93461   1.01664   0.05079 
 C                    -5.78116   0.05966  -0.54908 
 C                    -7.16114   0.20287  -0.52702 
 C                    -7.74178   1.32333   0.09549 
 C                    -9.16051   1.47593   0.11889 
 N                    -10.32117   1.60064   0.13789 
 C                    -6.9159    2.29432   0.69003 
 C                    -5.5376    2.13585   0.66443 
 C                    -2.67427  -0.25499  -0.00407 
 C                    -3.12622  -1.65552   0.15861 
 C                    -3.86979  -2.01464   1.30024 
 C                    -4.35163  -3.30595   1.47233 
 C                    -4.1048   -4.28369   0.49775 
 O                    -4.61959  -5.52928   0.75568 
 C                    -4.38749  -6.5627   -0.2056 
 C                    -3.37038  -3.94998  -0.64601 
 C                    -2.89242  -2.64743  -0.80515 
 N                    -1.34865   0.11975  -0.08262 
 B                    -0.13868  -0.82372  -0.31209 
 F                    -0.12339  -1.84209   0.64911 
 F                    -0.24689  -1.40191  -1.60559 
 C                     5.6025   -0.22583  -0.69073 
 C                     6.98896  -0.18452  -0.6152 
 H                     10.75097   1.43731   0.92198 
 H                     9.47558   2.67518   0.77013 
 H                     9.4264    1.49794   2.11539 
 H                     7.31648   2.37538   1.61464 
 H                     4.87212   2.27527   1.48011 
 H                     1.78076  -2.46401  -1.87314 
 H                     2.46435  -4.81588  -1.7905 
 H                     4.00836  -6.57273  -1.79121 
 H                     4.07827  -7.79208  -0.49117 
 H                     2.5444   -6.94844  -0.83486 
 H                     4.62589  -4.05774   1.8527 
 H                     3.9377   -1.68216   1.75786 
 H                     2.87918   2.8303   -0.01249 
 H                     1.54437   3.74523  -1.78373 
 H                     1.68227   6.19875  -1.83515 
 H                    -1.29126   6.4266    1.27984 
 H                    -1.41109   3.97482   1.34412 
 H                    -2.87507   3.0487   -0.13023 
 H                    -5.34997  -0.79542  -1.05556 
 H                    -7.79572  -0.53965  -0.99917 
 H                    -7.36009   3.15864   1.17214 
 H                    -4.91147   2.8831    1.14038 
 H                    -4.06399  -1.26995   2.06582 
 H                    -4.91715  -3.57695   2.35842 
 H                    -3.31665  -6.75511  -0.33407 
 H                    -4.86997  -7.4553    0.19472 
 H                    -4.83229  -6.31334  -1.17521 
 H                    -3.16954  -4.68598  -1.41507 
 H                    -2.31805  -2.40316  -1.69036 
 H                     5.13331  -0.94357  -1.35526 
 H                     7.59839  -0.86426  -1.2029 
 
 ITRead=  0  0  0  0  0  0  0  0  0  0  0  0  0  0  0  0  0  0  0  0
 ITRead=  0  0  0  0  0  0  0  0  0  0  0  0  0  0  0  0  0  0  0  0
 ITRead=  0  0  0  0  0  0  0  0  0  0  0  0  0  0  0  0  0  0  0  0
 ITRead=  0  0  0  0  0  0  0  0  0  0  0  0  0  0  0  0  0  0  0  0
 ITRead=  0  0  0  0  0
 MicOpt= -1 -1 -1 -1 -1 -1 -1 -1 -1 -1 -1 -1 -1 -1 -1 -1 -1 -1 -1 -1
 MicOpt= -1 -1 -1 -1 -1 -1 -1 -1 -1 -1 -1 -1 -1 -1 -1 -1 -1 -1 -1 -1
 MicOpt= -1 -1 -1 -1 -1 -1 -1 -1 -1 -1 -1 -1 -1 -1 -1 -1 -1 -1 -1 -1
 MicOpt= -1 -1 -1 -1 -1 -1 -1 -1 -1 -1 -1 -1 -1 -1 -1 -1 -1 -1 -1 -1
 MicOpt= -1 -1 -1 -1 -1
 NAtoms=     85 NQM=       85 NQMF=       0 NMMI=      0 NMMIF=      0
                NMic=       0 NMicF=      0.
                    Isotopes and Nuclear Properties:
 (Nuclear quadrupole moments (NQMom) in fm**2, nuclear magnetic moments (NMagM)
  in nuclear magnetons)

  Atom         1           2           3           4           5           6           7           8           9          10
 IAtWgt=          12          16          12          12          12          12          12          12          12          12
 AtmWgt=  12.0000000  15.9949146  12.0000000  12.0000000  12.0000000  12.0000000  12.0000000  12.0000000  12.0000000  12.0000000
 NucSpn=           0           0           0           0           0           0           0           0           0           0
 AtZEff=  -0.0000000  -0.0000000  -0.0000000  -0.0000000  -0.0000000  -0.0000000  -0.0000000  -0.0000000  -0.0000000  -0.0000000
 NQMom=    0.0000000   0.0000000   0.0000000   0.0000000   0.0000000   0.0000000   0.0000000   0.0000000   0.0000000   0.0000000
 NMagM=    0.0000000   0.0000000   0.0000000   0.0000000   0.0000000   0.0000000   0.0000000   0.0000000   0.0000000   0.0000000
 AtZNuc=   6.0000000   8.0000000   6.0000000   6.0000000   6.0000000   6.0000000   6.0000000   6.0000000   6.0000000   6.0000000

  Atom        11          12          13          14          15          16          17          18          19          20
 IAtWgt=          12          12          16          12          12          12          14          12          12          12
 AtmWgt=  12.0000000  12.0000000  15.9949146  12.0000000  12.0000000  12.0000000  14.0030740  12.0000000  12.0000000  12.0000000
 NucSpn=           0           0           0           0           0           0           2           0           0           0
 AtZEff=  -0.0000000  -0.0000000  -0.0000000  -0.0000000  -0.0000000  -0.0000000  -0.0000000  -0.0000000  -0.0000000  -0.0000000
 NQMom=    0.0000000   0.0000000   0.0000000   0.0000000   0.0000000   0.0000000   2.0440000   0.0000000   0.0000000   0.0000000
 NMagM=    0.0000000   0.0000000   0.0000000   0.0000000   0.0000000   0.0000000   0.4037610   0.0000000   0.0000000   0.0000000
 AtZNuc=   6.0000000   6.0000000   8.0000000   6.0000000   6.0000000   6.0000000   7.0000000   6.0000000   6.0000000   6.0000000

  Atom        21          22          23          24          25          26          27          28          29          30
 IAtWgt=          12          12          12          12          12          14          12          12          12          12
 AtmWgt=  12.0000000  12.0000000  12.0000000  12.0000000  12.0000000  14.0030740  12.0000000  12.0000000  12.0000000  12.0000000
 NucSpn=           0           0           0           0           0           2           0           0           0           0
 AtZEff=  -0.0000000  -0.0000000  -0.0000000  -0.0000000  -0.0000000  -0.0000000  -0.0000000  -0.0000000  -0.0000000  -0.0000000
 NQMom=    0.0000000   0.0000000   0.0000000   0.0000000   0.0000000   2.0440000   0.0000000   0.0000000   0.0000000   0.0000000
 NMagM=    0.0000000   0.0000000   0.0000000   0.0000000   0.0000000   0.4037610   0.0000000   0.0000000   0.0000000   0.0000000
 AtZNuc=   6.0000000   6.0000000   6.0000000   6.0000000   6.0000000   7.0000000   6.0000000   6.0000000   6.0000000   6.0000000

  Atom        31          32          33          34          35          36          37          38          39          40
 IAtWgt=          12          12          12          12          12          12          14          12          12          12
 AtmWgt=  12.0000000  12.0000000  12.0000000  12.0000000  12.0000000  12.0000000  14.0030740  12.0000000  12.0000000  12.0000000
 NucSpn=           0           0           0           0           0           0           2           0           0           0
 AtZEff=  -0.0000000  -0.0000000  -0.0000000  -0.0000000  -0.0000000  -0.0000000  -0.0000000  -0.0000000  -0.0000000  -0.0000000
 NQMom=    0.0000000   0.0000000   0.0000000   0.0000000   0.0000000   0.0000000   2.0440000   0.0000000   0.0000000   0.0000000
 NMagM=    0.0000000   0.0000000   0.0000000   0.0000000   0.0000000   0.0000000   0.4037610   0.0000000   0.0000000   0.0000000
 AtZNuc=   6.0000000   6.0000000   6.0000000   6.0000000   6.0000000   6.0000000   7.0000000   6.0000000   6.0000000   6.0000000

  Atom        41          42          43          44          45          46          47          48          49          50
 IAtWgt=          12          12          12          12          16          12          12          12          14          11
 AtmWgt=  12.0000000  12.0000000  12.0000000  12.0000000  15.9949146  12.0000000  12.0000000  12.0000000  14.0030740  11.0093053
 NucSpn=           0           0           0           0           0           0           0           0           2           3
 AtZEff=  -0.0000000  -0.0000000  -0.0000000  -0.0000000  -0.0000000  -0.0000000  -0.0000000  -0.0000000  -0.0000000  -0.0000000
 NQMom=    0.0000000   0.0000000   0.0000000   0.0000000   0.0000000   0.0000000   0.0000000   0.0000000   2.0440000   4.0590000
 NMagM=    0.0000000   0.0000000   0.0000000   0.0000000   0.0000000   0.0000000   0.0000000   0.0000000   0.4037610   2.6886370
 AtZNuc=   6.0000000   6.0000000   6.0000000   6.0000000   8.0000000   6.0000000   6.0000000   6.0000000   7.0000000   5.0000000

  Atom        51          52          53          54          55          56          57          58          59          60
 IAtWgt=          19          19          12          12           1           1           1           1           1           1
 AtmWgt=  18.9984033  18.9984033  12.0000000  12.0000000   1.0078250   1.0078250   1.0078250   1.0078250   1.0078250   1.0078250
 NucSpn=           1           1           0           0           1           1           1           1           1           1
 AtZEff=  -0.0000000  -0.0000000  -0.0000000  -0.0000000  -0.0000000  -0.0000000  -0.0000000  -0.0000000  -0.0000000  -0.0000000
 NQMom=    0.0000000   0.0000000   0.0000000   0.0000000   0.0000000   0.0000000   0.0000000   0.0000000   0.0000000   0.0000000
 NMagM=    2.6288670   2.6288670   0.0000000   0.0000000   2.7928460   2.7928460   2.7928460   2.7928460   2.7928460   2.7928460
 AtZNuc=   9.0000000   9.0000000   6.0000000   6.0000000   1.0000000   1.0000000   1.0000000   1.0000000   1.0000000   1.0000000

  Atom        61          62          63          64          65          66          67          68          69          70
 IAtWgt=           1           1           1           1           1           1           1           1           1           1
 AtmWgt=   1.0078250   1.0078250   1.0078250   1.0078250   1.0078250   1.0078250   1.0078250   1.0078250   1.0078250   1.0078250
 NucSpn=           1           1           1           1           1           1           1           1           1           1
 AtZEff=  -0.0000000  -0.0000000  -0.0000000  -0.0000000  -0.0000000  -0.0000000  -0.0000000  -0.0000000  -0.0000000  -0.0000000
 NQMom=    0.0000000   0.0000000   0.0000000   0.0000000   0.0000000   0.0000000   0.0000000   0.0000000   0.0000000   0.0000000
 NMagM=    2.7928460   2.7928460   2.7928460   2.7928460   2.7928460   2.7928460   2.7928460   2.7928460   2.7928460   2.7928460
 AtZNuc=   1.0000000   1.0000000   1.0000000   1.0000000   1.0000000   1.0000000   1.0000000   1.0000000   1.0000000   1.0000000

  Atom        71          72          73          74          75          76          77          78          79          80
 IAtWgt=           1           1           1           1           1           1           1           1           1           1
 AtmWgt=   1.0078250   1.0078250   1.0078250   1.0078250   1.0078250   1.0078250   1.0078250   1.0078250   1.0078250   1.0078250
 NucSpn=           1           1           1           1           1           1           1           1           1           1
 AtZEff=  -0.0000000  -0.0000000  -0.0000000  -0.0000000  -0.0000000  -0.0000000  -0.0000000  -0.0000000  -0.0000000  -0.0000000
 NQMom=    0.0000000   0.0000000   0.0000000   0.0000000   0.0000000   0.0000000   0.0000000   0.0000000   0.0000000   0.0000000
 NMagM=    2.7928460   2.7928460   2.7928460   2.7928460   2.7928460   2.7928460   2.7928460   2.7928460   2.7928460   2.7928460
 AtZNuc=   1.0000000   1.0000000   1.0000000   1.0000000   1.0000000   1.0000000   1.0000000   1.0000000   1.0000000   1.0000000

  Atom        81          82          83          84          85
 IAtWgt=           1           1           1           1           1
 AtmWgt=   1.0078250   1.0078250   1.0078250   1.0078250   1.0078250
 NucSpn=           1           1           1           1           1
 AtZEff=  -0.0000000  -0.0000000  -0.0000000  -0.0000000  -0.0000000
 NQMom=    0.0000000   0.0000000   0.0000000   0.0000000   0.0000000
 NMagM=    2.7928460   2.7928460   2.7928460   2.7928460   2.7928460
 AtZNuc=   1.0000000   1.0000000   1.0000000   1.0000000   1.0000000
 Leave Link  101 at Thu Nov  6 18:26:33 2025, MaxMem= 30870077440 cpu:               5.1 elap:               0.1
 (Enter /public/software/gauss/g16/l202.exe)
 Stoichiometry    C44H31BF2N4O3(1-,2)
 Framework group  C1[X(C44H31BF2N4O3)]
 Deg. of freedom   249
 Full point group                 C1      NOp   1
 Largest Abelian subgroup         C1      NOp   1
 Largest concise Abelian subgroup C1      NOp   1
                         Standard orientation:                         
 ---------------------------------------------------------------------
 Center     Atomic      Atomic             Coordinates (Angstroms)
 Number     Number       Type             X           Y           Z
 ---------------------------------------------------------------------
      1          6           0        9.688200    1.640373    1.060995
      2          8           0        8.998985    0.710222    0.222300
      3          6           0        7.624847    0.749714    0.215561
      4          6           0        6.852535    1.643103    0.964844
      5          6           0        5.458950    1.584588    0.881494
      6          6           0        4.799230    0.654477    0.062563
      7          6           0        3.325058    0.654074   -0.029026
      8          6           0        2.452389   -0.449461   -0.128244
      9          6           0        2.808694   -1.882086   -0.073353
     10          6           0        2.410505   -2.799630   -1.058062
     11          6           0        2.792789   -4.141876   -1.008518
     12          6           0        3.598064   -4.594578    0.042584
     13          8           0        4.033372   -5.888596    0.188621
     14          6           0        3.634325   -6.844055   -0.797833
     15          6           0        4.008436   -3.694643    1.036941
     16          6           0        3.618652   -2.363120    0.975422
     17          7           0        1.154402    0.020677   -0.232072
     18          6           0        1.182405    1.412458   -0.201332
     19          6           0        2.522848    1.812512   -0.066909
     20          6           0       -0.018118    2.187361   -0.195784
     21          6           0        0.051467    3.652651   -0.219770
     22          6           0        0.933701    4.324407   -1.100758
     23          6           0        1.010601    5.707574   -1.138940
     24          6           0        0.202162    6.481369   -0.283249
     25          6           0        0.277632    7.904191   -0.315277
     26          7           0        0.339761    9.070475   -0.341459
     27          6           0       -0.679544    5.836432    0.605568
     28          6           0       -0.750221    4.452142    0.630470
     29          6           0       -1.277745    1.512859   -0.114078
     30          6           0       -2.586295    2.010856   -0.065944
     31          6           0       -3.470509    0.908883    0.009216
     32          6           0       -4.934608    1.016638    0.050786
     33          6           0       -5.781163    0.059657   -0.549084
     34          6           0       -7.161136    0.202874   -0.527023
     35          6           0       -7.741780    1.323326    0.095491
     36          6           0       -9.160509    1.475927    0.118892
     37          7           0      -10.321171    1.600635    0.137891
     38          6           0       -6.915901    2.294316    0.690032
     39          6           0       -5.537598    2.135846    0.664432
     40          6           0       -2.674267   -0.254988   -0.004070
     41          6           0       -3.126218   -1.655519    0.158611
     42          6           0       -3.869786   -2.014639    1.300236
     43          6           0       -4.351627   -3.305946    1.472334
     44          6           0       -4.104799   -4.283690    0.497752
     45          8           0       -4.619593   -5.529276    0.755679
     46          6           0       -4.387488   -6.562697   -0.205596
     47          6           0       -3.370384   -3.949982   -0.646010
     48          6           0       -2.892416   -2.647434   -0.805154
     49          7           0       -1.348653    0.119754   -0.082622
     50          5           0       -0.138679   -0.823715   -0.312087
     51          9           0       -0.123394   -1.842091    0.649107
     52          9           0       -0.246894   -1.401912   -1.605594
     53          6           0        5.602500   -0.225831   -0.690730
     54          6           0        6.988958   -0.184519   -0.615199
     55          1           0       10.750974    1.437310    0.921979
     56          1           0        9.475576    2.675182    0.770130
     57          1           0        9.426403    1.497938    2.115392
     58          1           0        7.316484    2.375378    1.614638
     59          1           0        4.872122    2.275273    1.480111
     60          1           0        1.780761   -2.464007   -1.873139
     61          1           0        2.464350   -4.815876   -1.790497
     62          1           0        4.008361   -6.572726   -1.791205
     63          1           0        4.078269   -7.792079   -0.491165
     64          1           0        2.544398   -6.948444   -0.834860
     65          1           0        4.625886   -4.057742    1.852699
     66          1           0        3.937696   -1.682157    1.757857
     67          1           0        2.879178    2.830300   -0.012491
     68          1           0        1.544369    3.745226   -1.783726
     69          1           0        1.682267    6.198752   -1.835149
     70          1           0       -1.291264    6.426603    1.279837
     71          1           0       -1.411087    3.974821    1.344123
     72          1           0       -2.875067    3.048705   -0.130227
     73          1           0       -5.349970   -0.795416   -1.055564
     74          1           0       -7.795724   -0.539648   -0.999170
     75          1           0       -7.360094    3.158637    1.172141
     76          1           0       -4.911468    2.883099    1.140376
     77          1           0       -4.063988   -1.269950    2.065823
     78          1           0       -4.917148   -3.576947    2.358422
     79          1           0       -3.316645   -6.755108   -0.334073
     80          1           0       -4.869967   -7.455295    0.194723
     81          1           0       -4.832286   -6.313337   -1.175212
     82          1           0       -3.169544   -4.685983   -1.415067
     83          1           0       -2.318046   -2.403163   -1.690359
     84          1           0        5.133306   -0.943568   -1.355263
     85          1           0        7.598389   -0.864255   -1.202904
 ---------------------------------------------------------------------
 Rotational constants (GHZ):           0.0558194           0.0328317           0.0213017
 Leave Link  202 at Thu Nov  6 18:26:33 2025, MaxMem= 30870077440 cpu:               0.2 elap:               0.0
 (Enter /public/software/gauss/g16/l301.exe)
 Standard basis: def2TZVPP (5D, 7F)
 Ernie: Thresh=  0.10000D-02 Tol=  0.10000D-05 Strict=F.
 There are  2409 symmetry adapted cartesian basis functions of A   symmetry.
 There are  2108 symmetry adapted basis functions of A   symmetry.
  2108 basis functions,  3281 primitive gaussians,  2409 cartesian basis functions
   186 alpha electrons      185 beta electrons
       nuclear repulsion energy      6571.9289122166 Hartrees.
 IExCor= 4336 DFT=T Ex+Corr=M062X ExCW=0 ScaHFX=  0.540000
 ScaDFX=  1.000000  1.000000  1.000000  1.000000 ScalE2=  1.000000  1.000000
 IRadAn=      5 IRanWt=     -1 IRanGd=            0 ICorTp=0 IEmpDi=131
 NAtoms=   85 NActive=   85 NUniq=   85 SFac= 1.00D+00 NAtFMM=   60 NAOKFM=T Big=T
 Integral buffers will be    131072 words long.
 Raffenetti 2 integral format.
 Two-electron integral symmetry is turned on.
 R6Disp:  Grimme-D3 Dispersion energy=       -0.0081072112 Hartrees.
 Nuclear repulsion after empirical dispersion term =     6571.9208050054 Hartrees.
 ------------------------------------------------------------------------------
 Polarizable Continuum Model (PCM)
 =================================
 Model                : PCM.
 Atomic radii         : UFF (Universal Force Field).
 Polarization charges : Total charges.
 Charge compensation  : None.
 Solution method      : On-the-fly selection.
 Cavity type          : Scaled VdW (van der Waals Surface) (Alpha=1.100).
 Cavity algorithm     : GePol (No added spheres)
                        Default sphere list used, NSphG=   85.
                        Lebedev-Laikov grids with approx.  5.0 points / Ang**2.
                        Smoothing algorithm: York/Karplus (Gamma=1.0000).
                        Polarization charges: spherical gaussians, with
                                              point-specific exponents (IZeta= 3).
                        Self-potential: point-specific (ISelfS= 7).
                        Self-field    : sphere-specific E.n sum rule (ISelfD= 2).
 Solvent              : Water, Eps=  78.355300 Eps(inf)=   1.777849
 ------------------------------------------------------------------------------
 GePol: Number of generator spheres                  =      85
 GePol: Total number of spheres                      =      85
 GePol: Number of exposed spheres                    =      85 (100.00%)
 GePol: Number of points                             =    6241
 GePol: Average weight of points                     =       0.13
 GePol: Minimum weight of points                     =   0.18D-11
 GePol: Maximum weight of points                     =    0.20577
 GePol: Number of points with low weight             =     396
 GePol: Fraction of low-weight points (<1% of avg)   =       6.35%
 GePol: Cavity surface area                          =    802.640 Ang**2
 GePol: Cavity volume                                =    934.348 Ang**3
 Leave Link  301 at Thu Nov  6 18:26:33 2025, MaxMem= 30870077440 cpu:               3.8 elap:               0.1
 (Enter /public/software/gauss/g16/l302.exe)
 NPDir=0 NMtPBC=     1 NCelOv=     1 NCel=       1 NClECP=     1 NCelD=      1
         NCelK=      1 NCelE2=     1 NClLst=     1 CellRange=     0.0.
 One-electron integrals computed using PRISM.
 One-electron integral symmetry used in STVInt
   1 Symmetry operations used in ECPInt.
 ECPInt:  NShTT=  304590 NPrTT=  883737 LenC2=  189457 LenP2D=  361941.
 LDataN:  DoStor=T MaxTD1= 6 Len=  172
 NBasis=  2108 RedAO= T EigKep=  5.24D-06  NBF=  2108
 NBsUse=  2108 1.00D-06 EigRej= -1.00D+00 NBFU=  2108
 Precomputing XC quadrature grid using
 IXCGrd= 4 IRadAn=           5 IRanWt=          -1 IRanGd=           0 AccXCQ= 0.00D+00.
 Generated NRdTot=       0 NPtTot=           0 NUsed=           0 NTot=          32
 NSgBfM=  2122  2122  2122  2122  2122 MxSgAt=    85 MxSgA2=    85.
 Leave Link  302 at Thu Nov  6 18:26:46 2025, MaxMem= 30870077440 cpu:             805.2 elap:              12.6
 (Enter /public/software/gauss/g16/l303.exe)
 DipDrv:  MaxL=1.
 Leave Link  303 at Thu Nov  6 18:26:47 2025, MaxMem= 30870077440 cpu:              35.2 elap:               0.6
 (Enter /public/software/gauss/g16/l401.exe)
 ExpMin= 6.06D-02 ExpMax= 3.55D+04 ExpMxC= 1.21D+03 IAcc=3 IRadAn=         5 AccDes= 0.00D+00
 Harris functional with IExCor= 1009 and IRadAn=       5 diagonalized for initial guess.
 HarFok:  IExCor= 1009 AccDes= 0.00D+00 IRadAn=         5 IDoV= 1 UseB2=F ITyADJ=14
 ICtDFT=  3500011 ScaDFX=  1.000000  1.000000  1.000000  1.000000
 FoFCou: FMM=F IPFlag=           0 FMFlag=      100000 FMFlg1=        2001
         NFxFlg=           0 DoJE=T BraDBF=F KetDBF=T FulRan=T
         wScrn=  0.000000 ICntrl=       500 IOpCl=  0 I1Cent=   200000004 NGrid=           0
         NMat0=    1 NMatS0=      1 NMatT0=    0 NMatD0=    1 NMtDS0=    0 NMtDT0=    0
 Petite list used in FoFCou.
 Harris En= -2363.63159684647    
 JPrj=0 DoOrth=F DoCkMO=F.
 Initial guess <Sx>= 0.0000 <Sy>= 0.0000 <Sz>= 0.5000 <S**2>= 0.7500 S= 0.5000
 Leave Link  401 at Thu Nov  6 18:27:01 2025, MaxMem= 30870077440 cpu:             906.2 elap:              14.2
 (Enter /public/software/gauss/g16/l502.exe)
 Integral symmetry usage will be decided dynamically.
 UHF open shell SCF:
 Using DIIS extrapolation, IDIIS=  1040.
 NGot= 30870077440 LenX= 30858296553 LenY= 30852490863
 Requested convergence on RMS density matrix=1.00D-08 within 128 cycles.
 Requested convergence on MAX density matrix=1.00D-06.
 Requested convergence on             energy=1.00D-06.
 No special actions if energy rises.
 Fock matrices will be formed incrementally for  20 cycles.

 Cycle   1  Pass 1  IDiag  1:
 FoFJK:  IHMeth= 1 ICntrl=       0 DoSepK=F KAlg= 0 I1Cent=           0 FoldK=F
 IRaf= 580000000 NMat=       1 IRICut=       1 DoRegI=T DoRafI=F ISym2E= 0 IDoP0=0 IntGTp=1.
 FoFCou: FMM=T IPFlag=           0 FMFlag=      100000 FMFlg1=        2001
         NFxFlg=           0 DoJE=F BraDBF=F KetDBF=F FulRan=T
         wScrn=  0.000000 ICntrl=         0 IOpCl=  1 I1Cent=           0 NGrid=           0
         NMat0=    1 NMatS0=      1 NMatT0=    0 NMatD0=    1 NMtDS0=    0 NMtDT0=    0
 Symmetry not used in FoFCou.
 FMM levels:  10  Number of levels for PrismC:   9
 Inv3:  Mode=1 IEnd=   116850243.
 Iteration    1 A*A^-1 deviation from unit magnitude is 1.02D-14 for    768.
 Iteration    1 A*A^-1 deviation from orthogonality  is 5.01D-15 for   3540    776.
 Iteration    1 A^-1*A deviation from unit magnitude is 1.04D-14 for    768.
 Iteration    1 A^-1*A deviation from orthogonality  is 1.17D-13 for   5988   5959.
 E= -2363.77182346309    
 DIIS: error= 1.22D-02 at cycle   1 NSaved=   1.
 NSaved= 1 IEnMin= 1 EnMin= -2363.77182346309     IErMin= 1 ErrMin= 1.22D-02
 ErrMax= 1.22D-02  0.00D+00 EMaxC= 1.00D-01 BMatC= 5.62D+00 BMatP= 5.62D+00
 IDIUse=3 WtCom= 8.78D-01 WtEn= 1.22D-01
 Coeff-Com:  0.100D+01
 Coeff-En:   0.100D+01
 Coeff:      0.100D+01
 Gap=     0.136 Goal=   None    Shift=    0.000
 Gap=     0.157 Goal=   None    Shift=    0.000
 GapD=    0.136 DampG=1.000 DampE=0.500 DampFc=0.5000 IDamp=-1.
 Damping current iteration by 5.00D-01
 RMSDP=1.82D-03 MaxDP=2.50D-01              OVMax= 1.72D-01

 Cycle   2  Pass 1  IDiag  1:
 RMSU=  9.09D-04    CP:  9.91D-01
 E= -2364.34514999490     Delta-E=       -0.573326531809 Rises=F Damp=T
 DIIS: error= 3.50D-03 at cycle   2 NSaved=   2.
 NSaved= 2 IEnMin= 2 EnMin= -2364.34514999490     IErMin= 2 ErrMin= 3.50D-03
 ErrMax= 3.50D-03  0.00D+00 EMaxC= 1.00D-01 BMatC= 5.87D-01 BMatP= 5.62D+00
 IDIUse=3 WtCom= 9.65D-01 WtEn= 3.50D-02
 Coeff-Com: -0.206D+00 0.121D+01
 Coeff-En:   0.000D+00 0.100D+01
 Coeff:     -0.199D+00 0.120D+01
 Gap=     0.139 Goal=   None    Shift=    0.000
 Gap=     0.163 Goal=   None    Shift=    0.000
 RMSDP=6.29D-04 MaxDP=5.08D-02 DE=-5.73D-01 OVMax= 9.88D-02

 Cycle   3  Pass 1  IDiag  1:
 RMSU=  6.25D-04    CP:  9.74D-01  1.04D+00
 E= -2364.81785780182     Delta-E=       -0.472707806919 Rises=F Damp=F
 DIIS: error= 4.52D-03 at cycle   3 NSaved=   3.
 NSaved= 3 IEnMin= 3 EnMin= -2364.81785780182     IErMin= 2 ErrMin= 3.50D-03
 ErrMax= 4.52D-03  0.00D+00 EMaxC= 1.00D-01 BMatC= 2.59D-01 BMatP= 5.87D-01
 IDIUse=3 WtCom= 9.55D-01 WtEn= 4.52D-02
 Coeff-Com: -0.159D+00 0.543D+00 0.616D+00
 Coeff-En:   0.000D+00 0.000D+00 0.100D+01
 Coeff:     -0.152D+00 0.518D+00 0.633D+00
 Gap=     0.146 Goal=   None    Shift=    0.000
 Gap=     0.158 Goal=   None    Shift=    0.000
 RMSDP=1.79D-04 MaxDP=1.97D-02 DE=-4.73D-01 OVMax= 5.55D-02

 Cycle   4  Pass 1  IDiag  1:
 RMSU=  1.75D-04    CP:  9.72D-01  1.04D+00  9.43D-01
 E= -2364.86044697309     Delta-E=       -0.042589171271 Rises=F Damp=F
 DIIS: error= 2.38D-03 at cycle   4 NSaved=   4.
 NSaved= 4 IEnMin= 4 EnMin= -2364.86044697309     IErMin= 4 ErrMin= 2.38D-03
 ErrMax= 2.38D-03  0.00D+00 EMaxC= 1.00D-01 BMatC= 6.13D-02 BMatP= 2.59D-01
 IDIUse=3 WtCom= 9.76D-01 WtEn= 2.38D-02
 Coeff-Com: -0.581D-01 0.149D+00 0.367D+00 0.543D+00
 Coeff-En:   0.000D+00 0.000D+00 0.191D+00 0.809D+00
 Coeff:     -0.567D-01 0.145D+00 0.362D+00 0.549D+00
 Gap=     0.147 Goal=   None    Shift=    0.000
 Gap=     0.159 Goal=   None    Shift=    0.000
 RMSDP=7.69D-05 MaxDP=1.11D-02 DE=-4.26D-02 OVMax= 1.73D-02

 Cycle   5  Pass 1  IDiag  1:
 RMSU=  5.43D-05    CP:  9.72D-01  1.05D+00  9.48D-01  6.93D-01
 E= -2364.87329212933     Delta-E=       -0.012845156238 Rises=F Damp=F
 DIIS: error= 4.56D-04 at cycle   5 NSaved=   5.
 NSaved= 5 IEnMin= 5 EnMin= -2364.87329212933     IErMin= 5 ErrMin= 4.56D-04
 ErrMax= 4.56D-04  0.00D+00 EMaxC= 1.00D-01 BMatC= 2.90D-03 BMatP= 6.13D-02
 IDIUse=3 WtCom= 9.95D-01 WtEn= 4.56D-03
 Coeff-Com: -0.171D-01 0.352D-01 0.138D+00 0.269D+00 0.576D+00
 Coeff-En:   0.000D+00 0.000D+00 0.000D+00 0.000D+00 0.100D+01
 Coeff:     -0.171D-01 0.351D-01 0.137D+00 0.268D+00 0.578D+00
 Gap=     0.146 Goal=   None    Shift=    0.000
 Gap=     0.160 Goal=   None    Shift=    0.000
 RMSDP=2.43D-05 MaxDP=3.34D-03 DE=-1.28D-02 OVMax= 4.35D-03

 Cycle   6  Pass 1  IDiag  1:
 RMSU=  2.31D-05    CP:  9.72D-01  1.06D+00  9.48D-01  6.96D-01  9.48D-01
 E= -2364.87393341280     Delta-E=       -0.000641283466 Rises=F Damp=F
 DIIS: error= 1.24D-04 at cycle   6 NSaved=   6.
 NSaved= 6 IEnMin= 6 EnMin= -2364.87393341280     IErMin= 6 ErrMin= 1.24D-04
 ErrMax= 1.24D-04  0.00D+00 EMaxC= 1.00D-01 BMatC= 2.45D-04 BMatP= 2.90D-03
 IDIUse=3 WtCom= 9.99D-01 WtEn= 1.24D-03
 Coeff-Com: -0.179D-02 0.162D-02 0.246D-01 0.596D-01 0.245D+00 0.670D+00
 Coeff-En:   0.000D+00 0.000D+00 0.000D+00 0.000D+00 0.000D+00 0.100D+01
 Coeff:     -0.179D-02 0.161D-02 0.246D-01 0.595D-01 0.245D+00 0.671D+00
 Gap=     0.147 Goal=   None    Shift=    0.000
 Gap=     0.161 Goal=   None    Shift=    0.000
 RMSDP=1.06D-05 MaxDP=1.81D-03 DE=-6.41D-04 OVMax= 6.13D-03

 Cycle   7  Pass 1  IDiag  1:
 RMSU=  7.98D-06    CP:  9.72D-01  1.06D+00  9.48D-01  7.08D-01  1.06D+00
                    CP:  1.07D+00
 E= -2364.87402680223     Delta-E=       -0.000093389437 Rises=F Damp=F
 DIIS: error= 5.33D-05 at cycle   7 NSaved=   7.
 NSaved= 7 IEnMin= 7 EnMin= -2364.87402680223     IErMin= 7 ErrMin= 5.33D-05
 ErrMax= 5.33D-05  0.00D+00 EMaxC= 1.00D-01 BMatC= 5.76D-05 BMatP= 2.45D-04
 IDIUse=1 WtCom= 1.00D+00 WtEn= 0.00D+00
 Coeff-Com:  0.288D-02-0.669D-02-0.190D-01-0.351D-01-0.302D-01 0.275D+00
 Coeff-Com:  0.813D+00
 Coeff:      0.288D-02-0.669D-02-0.190D-01-0.351D-01-0.302D-01 0.275D+00
 Coeff:      0.813D+00
 Gap=     0.148 Goal=   None    Shift=    0.000
 Gap=     0.162 Goal=   None    Shift=    0.000
 RMSDP=8.45D-06 MaxDP=1.68D-03 DE=-9.34D-05 OVMax= 4.54D-03

 Cycle   8  Pass 1  IDiag  1:
 RMSU=  4.22D-06    CP:  9.72D-01  1.06D+00  9.50D-01  7.13D-01  1.15D+00
                    CP:  1.23D+00  1.48D+00
 E= -2364.87406587591     Delta-E=       -0.000039073679 Rises=F Damp=F
 DIIS: error= 2.84D-05 at cycle   8 NSaved=   8.
 NSaved= 8 IEnMin= 8 EnMin= -2364.87406587591     IErMin= 8 ErrMin= 2.84D-05
 ErrMax= 2.84D-05  0.00D+00 EMaxC= 1.00D-01 BMatC= 1.77D-05 BMatP= 5.76D-05
 IDIUse=1 WtCom= 1.00D+00 WtEn= 0.00D+00
 Coeff-Com:  0.208D-02-0.406D-02-0.172D-01-0.372D-01-0.979D-01-0.782D-01
 Coeff-Com:  0.388D+00 0.844D+00
 Coeff:      0.208D-02-0.406D-02-0.172D-01-0.372D-01-0.979D-01-0.782D-01
 Coeff:      0.388D+00 0.844D+00
 Gap=     0.148 Goal=   None    Shift=    0.000
 Gap=     0.162 Goal=   None    Shift=    0.000
 RMSDP=6.23D-06 MaxDP=9.41D-04 DE=-3.91D-05 OVMax= 3.60D-03

 Cycle   9  Pass 1  IDiag  1:
 RMSU=  2.47D-06    CP:  9.72D-01  1.06D+00  9.51D-01  7.17D-01  1.21D+00
                    CP:  1.35D+00  1.88D+00  1.49D+00
 E= -2364.87408183429     Delta-E=       -0.000015958374 Rises=F Damp=F
 DIIS: error= 1.11D-05 at cycle   9 NSaved=   9.
 NSaved= 9 IEnMin= 9 EnMin= -2364.87408183429     IErMin= 9 ErrMin= 1.11D-05
 ErrMax= 1.11D-05  0.00D+00 EMaxC= 1.00D-01 BMatC= 2.88D-06 BMatP= 1.77D-05
 IDIUse=1 WtCom= 1.00D+00 WtEn= 0.00D+00
 Coeff-Com: -0.269D-03 0.828D-03 0.826D-03-0.350D-03-0.184D-01-0.874D-01
 Coeff-Com: -0.108D+00 0.217D+00 0.996D+00
 Coeff:     -0.269D-03 0.828D-03 0.826D-03-0.350D-03-0.184D-01-0.874D-01
 Coeff:     -0.108D+00 0.217D+00 0.996D+00
 Gap=     0.148 Goal=   None    Shift=    0.000
 Gap=     0.163 Goal=   None    Shift=    0.000
 RMSDP=3.28D-06 MaxDP=5.52D-04 DE=-1.60D-05 OVMax= 2.10D-03

 Cycle  10  Pass 1  IDiag  1:
 RMSU=  1.28D-06    CP:  9.72D-01  1.06D+00  9.51D-01  7.20D-01  1.22D+00
                    CP:  1.38D+00  2.09D+00  1.91D+00  1.36D+00
 E= -2364.87408526436     Delta-E=       -0.000003430074 Rises=F Damp=F
 DIIS: error= 4.80D-06 at cycle  10 NSaved=  10.
 NSaved=10 IEnMin=10 EnMin= -2364.87408526436     IErMin=10 ErrMin= 4.80D-06
 ErrMax= 4.80D-06  0.00D+00 EMaxC= 1.00D-01 BMatC= 7.64D-07 BMatP= 2.88D-06
 IDIUse=1 WtCom= 1.00D+00 WtEn= 0.00D+00
 Coeff-Com: -0.509D-03 0.113D-02 0.354D-02 0.685D-02 0.942D-02-0.257D-01
 Coeff-Com: -0.119D+00-0.621D-01 0.426D+00 0.760D+00
 Coeff:     -0.509D-03 0.113D-02 0.354D-02 0.685D-02 0.942D-02-0.257D-01
 Coeff:     -0.119D+00-0.621D-01 0.426D+00 0.760D+00
 Gap=     0.149 Goal=   None    Shift=    0.000
 Gap=     0.163 Goal=   None    Shift=    0.000
 RMSDP=1.25D-06 MaxDP=2.50D-04 DE=-3.43D-06 OVMax= 7.55D-04

 Cycle  11  Pass 1  IDiag  1:
 RMSU=  4.18D-07    CP:  9.72D-01  1.05D+00  9.51D-01  7.21D-01  1.23D+00
                    CP:  1.39D+00  2.16D+00  2.05D+00  1.60D+00  1.22D+00
 E= -2364.87408578438     Delta-E=       -0.000000520020 Rises=F Damp=F
 DIIS: error= 3.22D-06 at cycle  11 NSaved=  11.
 NSaved=11 IEnMin=11 EnMin= -2364.87408578438     IErMin=11 ErrMin= 3.22D-06
 ErrMax= 3.22D-06  0.00D+00 EMaxC= 1.00D-01 BMatC= 1.57D-07 BMatP= 7.64D-07
 IDIUse=1 WtCom= 1.00D+00 WtEn= 0.00D+00
 Coeff-Com: -0.157D-03 0.316D-03 0.129D-02 0.290D-02 0.699D-02 0.416D-02
 Coeff-Com: -0.290D-01-0.595D-01-0.218D-02 0.328D+00 0.747D+00
 Coeff:     -0.157D-03 0.316D-03 0.129D-02 0.290D-02 0.699D-02 0.416D-02
 Coeff:     -0.290D-01-0.595D-01-0.218D-02 0.328D+00 0.747D+00
 Gap=     0.149 Goal=   None    Shift=    0.000
 Gap=     0.163 Goal=   None    Shift=    0.000
 RMSDP=4.34D-07 MaxDP=7.77D-05 DE=-5.20D-07 OVMax= 2.48D-04

 Cycle  12  Pass 1  IDiag  1:
 RMSU=  2.59D-07    CP:  9.72D-01  1.05D+00  9.51D-01  7.21D-01  1.23D+00
                    CP:  1.39D+00  2.17D+00  2.08D+00  1.65D+00  1.41D+00
                    CP:  1.16D+00
 E= -2364.87408588451     Delta-E=       -0.000000100126 Rises=F Damp=F
 DIIS: error= 1.65D-06 at cycle  12 NSaved=  12.
 NSaved=12 IEnMin=12 EnMin= -2364.87408588451     IErMin=12 ErrMin= 1.65D-06
 ErrMax= 1.65D-06  0.00D+00 EMaxC= 1.00D-01 BMatC= 3.33D-08 BMatP= 1.57D-07
 IDIUse=1 WtCom= 1.00D+00 WtEn= 0.00D+00
 Coeff-Com:  0.568D-04-0.135D-03-0.324D-03-0.499D-03 0.399D-03 0.690D-02
 Coeff-Com:  0.150D-01-0.650D-02-0.964D-01-0.482D-01 0.271D+00 0.859D+00
 Coeff:      0.568D-04-0.135D-03-0.324D-03-0.499D-03 0.399D-03 0.690D-02
 Coeff:      0.150D-01-0.650D-02-0.964D-01-0.482D-01 0.271D+00 0.859D+00
 Gap=     0.149 Goal=   None    Shift=    0.000
 Gap=     0.163 Goal=   None    Shift=    0.000
 RMSDP=2.43D-07 MaxDP=4.16D-05 DE=-1.00D-07 OVMax= 1.16D-04

 Cycle  13  Pass 1  IDiag  1:
 RMSU=  1.12D-07    CP:  9.72D-01  1.05D+00  9.51D-01  7.21D-01  1.23D+00
                    CP:  1.39D+00  2.18D+00  2.09D+00  1.67D+00  1.51D+00
                    CP:  1.39D+00  1.28D+00
 E= -2364.87408591757     Delta-E=       -0.000000033062 Rises=F Damp=F
 DIIS: error= 1.05D-06 at cycle  13 NSaved=  13.
 NSaved=13 IEnMin=13 EnMin= -2364.87408591757     IErMin=13 ErrMin= 1.05D-06
 ErrMax= 1.05D-06  0.00D+00 EMaxC= 1.00D-01 BMatC= 1.20D-08 BMatP= 3.33D-08
 IDIUse=1 WtCom= 1.00D+00 WtEn= 0.00D+00
 Coeff-Com:  0.654D-04-0.141D-03-0.482D-03-0.101D-02-0.164D-02 0.212D-02
 Coeff-Com:  0.140D-01 0.136D-01-0.413D-01-0.111D+00-0.788D-01 0.400D+00
 Coeff-Com:  0.804D+00
 Coeff:      0.654D-04-0.141D-03-0.482D-03-0.101D-02-0.164D-02 0.212D-02
 Coeff:      0.140D-01 0.136D-01-0.413D-01-0.111D+00-0.788D-01 0.400D+00
 Coeff:      0.804D+00
 Gap=     0.149 Goal=   None    Shift=    0.000
 Gap=     0.163 Goal=   None    Shift=    0.000
 RMSDP=1.27D-07 MaxDP=1.90D-05 DE=-3.31D-08 OVMax= 6.07D-05

 Cycle  14  Pass 1  IDiag  1:
 RMSU=  6.49D-08    CP:  9.72D-01  1.05D+00  9.51D-01  7.21D-01  1.23D+00
                    CP:  1.39D+00  2.18D+00  2.10D+00  1.68D+00  1.55D+00
                    CP:  1.49D+00  1.57D+00  1.21D+00
 E= -2364.87408592953     Delta-E=       -0.000000011960 Rises=F Damp=F
 DIIS: error= 5.41D-07 at cycle  14 NSaved=  14.
 NSaved=14 IEnMin=14 EnMin= -2364.87408592953     IErMin=14 ErrMin= 5.41D-07
 ErrMax= 5.41D-07  0.00D+00 EMaxC= 1.00D-01 BMatC= 3.06D-09 BMatP= 1.20D-08
 IDIUse=1 WtCom= 1.00D+00 WtEn= 0.00D+00
 Coeff-Com:  0.403D-05-0.545D-05-0.598D-04-0.198D-03-0.692D-03-0.140D-02
 Coeff-Com: -0.386D-03 0.684D-02 0.179D-01-0.259D-01-0.130D+00-0.151D+00
 Coeff-Com:  0.289D+00 0.995D+00
 Coeff:      0.403D-05-0.545D-05-0.598D-04-0.198D-03-0.692D-03-0.140D-02
 Coeff:     -0.386D-03 0.684D-02 0.179D-01-0.259D-01-0.130D+00-0.151D+00
 Coeff:      0.289D+00 0.995D+00
 Gap=     0.149 Goal=   None    Shift=    0.000
 Gap=     0.163 Goal=   None    Shift=    0.000
 RMSDP=8.66D-08 MaxDP=1.17D-05 DE=-1.20D-08 OVMax= 3.21D-05

 Cycle  15  Pass 1  IDiag  1:
 RMSU=  3.45D-08    CP:  9.72D-01  1.05D+00  9.51D-01  7.21D-01  1.23D+00
                    CP:  1.39D+00  2.18D+00  2.10D+00  1.68D+00  1.56D+00
                    CP:  1.54D+00  1.71D+00  1.62D+00  1.53D+00
 E= -2364.87408593412     Delta-E=       -0.000000004589 Rises=F Damp=F
 DIIS: error= 2.42D-07 at cycle  15 NSaved=  15.
 NSaved=15 IEnMin=15 EnMin= -2364.87408593412     IErMin=15 ErrMin= 2.42D-07
 ErrMax= 2.42D-07  0.00D+00 EMaxC= 1.00D-01 BMatC= 7.97D-10 BMatP= 3.06D-09
 IDIUse=1 WtCom= 1.00D+00 WtEn= 0.00D+00
 Coeff-Com: -0.138D-04 0.312D-04 0.911D-04 0.159D-03 0.968D-04-0.104D-02
 Coeff-Com: -0.352D-02-0.526D-03 0.162D-01 0.182D-01-0.276D-01-0.148D+00
 Coeff-Com: -0.992D-01 0.363D+00 0.882D+00
 Coeff:     -0.138D-04 0.312D-04 0.911D-04 0.159D-03 0.968D-04-0.104D-02
 Coeff:     -0.352D-02-0.526D-03 0.162D-01 0.182D-01-0.276D-01-0.148D+00
 Coeff:     -0.992D-01 0.363D+00 0.882D+00
 Gap=     0.149 Goal=   None    Shift=    0.000
 Gap=     0.163 Goal=   None    Shift=    0.000
 RMSDP=4.08D-08 MaxDP=4.40D-06 DE=-4.59D-09 OVMax= 1.69D-05

 Cycle  16  Pass 1  IDiag  1:
 RMSU=  1.36D-08    CP:  9.72D-01  1.05D+00  9.51D-01  7.21D-01  1.23D+00
                    CP:  1.39D+00  2.18D+00  2.10D+00  1.68D+00  1.56D+00
                    CP:  1.54D+00  1.75D+00  1.74D+00  1.96D+00  1.44D+00
 E= -2364.87408593498     Delta-E=       -0.000000000857 Rises=F Damp=F
 DIIS: error= 1.94D-07 at cycle  16 NSaved=  16.
 NSaved=16 IEnMin=16 EnMin= -2364.87408593498     IErMin=16 ErrMin= 1.94D-07
 ErrMax= 1.94D-07  0.00D+00 EMaxC= 1.00D-01 BMatC= 2.12D-10 BMatP= 7.97D-10
 IDIUse=1 WtCom= 1.00D+00 WtEn= 0.00D+00
 Coeff-Com: -0.553D-05 0.117D-04 0.496D-04 0.112D-03 0.217D-03 0.901D-05
 Coeff-Com: -0.115D-02-0.206D-02 0.686D-03 0.144D-01 0.261D-01-0.163D-01
 Coeff-Com: -0.122D+00-0.138D+00 0.351D+00 0.887D+00
 Coeff:     -0.553D-05 0.117D-04 0.496D-04 0.112D-03 0.217D-03 0.901D-05
 Coeff:     -0.115D-02-0.206D-02 0.686D-03 0.144D-01 0.261D-01-0.163D-01
 Coeff:     -0.122D+00-0.138D+00 0.351D+00 0.887D+00
 Gap=     0.149 Goal=   None    Shift=    0.000
 Gap=     0.163 Goal=   None    Shift=    0.000
 RMSDP=2.16D-08 MaxDP=3.35D-06 DE=-8.57D-10 OVMax= 1.24D-05

 Cycle  17  Pass 1  IDiag  1:
 RMSU=  8.54D-09    CP:  9.72D-01  1.05D+00  9.51D-01  7.21D-01  1.23D+00
                    CP:  1.39D+00  2.18D+00  2.10D+00  1.68D+00  1.56D+00
                    CP:  1.54D+00  1.75D+00  1.81D+00  2.13D+00  1.78D+00
                    CP:  1.54D+00
 E= -2364.87408593557     Delta-E=       -0.000000000595 Rises=F Damp=F
 DIIS: error= 7.95D-08 at cycle  17 NSaved=  17.
 NSaved=17 IEnMin=17 EnMin= -2364.87408593557     IErMin=17 ErrMin= 7.95D-08
 ErrMax= 7.95D-08  0.00D+00 EMaxC= 1.00D-01 BMatC= 4.94D-11 BMatP= 2.12D-10
 IDIUse=1 WtCom= 1.00D+00 WtEn= 0.00D+00
 Coeff-Com:  0.590D-06-0.155D-05 0.158D-05 0.133D-04 0.619D-04 0.188D-03
 Coeff-Com:  0.264D-03-0.676D-03-0.274D-02 0.174D-02 0.156D-01 0.214D-01
 Coeff-Com: -0.242D-01-0.126D+00-0.449D-01 0.326D+00 0.834D+00
 Coeff:      0.590D-06-0.155D-05 0.158D-05 0.133D-04 0.619D-04 0.188D-03
 Coeff:      0.264D-03-0.676D-03-0.274D-02 0.174D-02 0.156D-01 0.214D-01
 Coeff:     -0.242D-01-0.126D+00-0.449D-01 0.326D+00 0.834D+00
 Gap=     0.149 Goal=   None    Shift=    0.000
 Gap=     0.163 Goal=   None    Shift=    0.000
 RMSDP=1.10D-08 MaxDP=2.31D-06 DE=-5.95D-10 OVMax= 8.08D-06

 Cycle  18  Pass 1  IDiag  1:
 RMSU=  3.86D-09    CP:  9.72D-01  1.05D+00  9.51D-01  7.21D-01  1.23D+00
                    CP:  1.39D+00  2.18D+00  2.10D+00  1.68D+00  1.56D+00
                    CP:  1.53D+00  1.74D+00  1.82D+00  2.17D+00  1.93D+00
                    CP:  1.94D+00  1.39D+00
 E= -2364.87408593562     Delta-E=       -0.000000000055 Rises=F Damp=F
 DIIS: error= 6.16D-08 at cycle  18 NSaved=  18.
 NSaved=18 IEnMin=18 EnMin= -2364.87408593562     IErMin=18 ErrMin= 6.16D-08
 ErrMax= 6.16D-08  0.00D+00 EMaxC= 1.00D-01 BMatC= 2.52D-11 BMatP= 4.94D-11
 IDIUse=1 WtCom= 1.00D+00 WtEn= 0.00D+00
 Coeff-Com:  0.197D-05-0.434D-05-0.140D-04-0.249D-04-0.273D-04 0.100D-03
 Coeff-Com:  0.515D-03 0.220D-03-0.180D-02-0.346D-02 0.176D-02 0.179D-01
 Coeff-Com:  0.236D-01-0.371D-01-0.135D+00-0.845D-01 0.520D+00 0.697D+00
 Coeff:      0.197D-05-0.434D-05-0.140D-04-0.249D-04-0.273D-04 0.100D-03
 Coeff:      0.515D-03 0.220D-03-0.180D-02-0.346D-02 0.176D-02 0.179D-01
 Coeff:      0.236D-01-0.371D-01-0.135D+00-0.845D-01 0.520D+00 0.697D+00
 Gap=     0.149 Goal=   None    Shift=    0.000
 Gap=     0.163 Goal=   None    Shift=    0.000
 RMSDP=6.18D-09 MaxDP=1.28D-06 DE=-5.46D-11 OVMax= 4.69D-06

 Cycle  19  Pass 1  IDiag  1:
 RMSU=  2.24D-09    CP:  9.72D-01  1.05D+00  9.51D-01  7.21D-01  1.23D+00
                    CP:  1.39D+00  2.18D+00  2.10D+00  1.68D+00  1.56D+00
                    CP:  1.53D+00  1.74D+00  1.82D+00  2.19D+00  2.01D+00
                    CP:  2.13D+00  1.70D+00  1.26D+00
 E= -2364.87408593539     Delta-E=        0.000000000233 Rises=F Damp=F
 DIIS: error= 2.18D-08 at cycle  19 NSaved=  19.
 NSaved=19 IEnMin=18 EnMin= -2364.87408593562     IErMin=19 ErrMin= 2.18D-08
 ErrMax= 2.18D-08  0.00D+00 EMaxC= 1.00D-01 BMatC= 3.30D-12 BMatP= 2.52D-11
 IDIUse=1 WtCom= 1.00D+00 WtEn= 0.00D+00
 Coeff-Com:  0.465D-06-0.100D-05-0.497D-05-0.101D-04-0.186D-04-0.101D-04
 Coeff-Com:  0.124D-03 0.220D-03-0.162D-04-0.158D-02-0.256D-02 0.131D-02
 Coeff-Com:  0.132D-01 0.130D-01-0.289D-01-0.106D+00-0.261D-01 0.230D+00
 Coeff-Com:  0.908D+00
 Coeff:      0.465D-06-0.100D-05-0.497D-05-0.101D-04-0.186D-04-0.101D-04
 Coeff:      0.124D-03 0.220D-03-0.162D-04-0.158D-02-0.256D-02 0.131D-02
 Coeff:      0.132D-01 0.130D-01-0.289D-01-0.106D+00-0.261D-01 0.230D+00
 Coeff:      0.908D+00
 Gap=     0.149 Goal=   None    Shift=    0.000
 Gap=     0.163 Goal=   None    Shift=    0.000
 RMSDP=3.37D-09 MaxDP=6.18D-07 DE= 2.33D-10 OVMax= 2.26D-06

 Error on total polarization charges =  0.02691
 SCF Done:  E(UM062X) =  -2364.87408594     A.U. after   19 cycles
            NFock= 19  Conv=0.34D-08     -V/T= 2.0055
 <Sx>= 0.0000 <Sy>= 0.0000 <Sz>= 0.5000 <S**2>= 0.7705 S= 0.5102
 <L.S>= 0.000000000000E+00
 KE= 2.352009756308D+03 PE=-1.868936683361D+04 EE= 7.400562186358D+03
 Annihilation of the first spin contaminant:
 S**2 before annihilation     0.7705,   after     0.7504
 Leave Link  502 at Thu Nov  6 19:08:30 2025, MaxMem= 30870077440 cpu:          157173.5 elap:            2489.0
 (Enter /public/software/gauss/g16/l601.exe)
 Copying SCF densities to generalized density rwf, IOpCl= 1 IROHF=0.

 **********************************************************************

            Population analysis using the SCF density.

 **********************************************************************

 Orbital symmetries:
 Alpha Orbitals:
       Occupied  (A) (A) (A) (A) (A) (A) (A) (A) (A) (A) (A) (A)
                 (A) (A) (A) (A) (A) (A) (A) (A) (A) (A) (A) (A)
                 (A) (A) (A) (A) (A) (A) (A) (A) (A) (A) (A) (A)
                 (A) (A) (A) (A) (A) (A) (A) (A) (A) (A) (A) (A)
                 (A) (A) (A) (A) (A) (A) (A) (A) (A) (A) (A) (A)
                 (A) (A) (A) (A) (A) (A) (A) (A) (A) (A) (A) (A)
                 (A) (A) (A) (A) (A) (A) (A) (A) (A) (A) (A) (A)
                 (A) (A) (A) (A) (A) (A) (A) (A) (A) (A) (A) (A)
                 (A) (A) (A) (A) (A) (A) (A) (A) (A) (A) (A) (A)
                 (A) (A) (A) (A) (A) (A) (A) (A) (A) (A) (A) (A)
                 (A) (A) (A) (A) (A) (A) (A) (A) (A) (A) (A) (A)
                 (A) (A) (A) (A) (A) (A) (A) (A) (A) (A) (A) (A)
                 (A) (A) (A) (A) (A) (A) (A) (A) (A) (A) (A) (A)
                 (A) (A) (A) (A) (A) (A) (A) (A) (A) (A) (A) (A)
                 (A) (A) (A) (A) (A) (A) (A) (A) (A) (A) (A) (A)
                 (A) (A) (A) (A) (A) (A)
       Virtual   (A) (A) (A) (A) (A) (A) (A) (A) (A) (A) (A) (A)
                 (A) (A) (A) (A) (A) (A) (A) (A) (A) (A) (A) (A)
                 (A) (A) (A) (A) (A) (A) (A) (A) (A) (A) (A) (A)
                 (A) (A) (A) (A) (A) (A) (A) (A) (A) (A) (A) (A)
                 (A) (A) (A) (A) (A) (A) (A) (A) (A) (A) (A) (A)
                 (A) (A) (A) (A) (A) (A) (A) (A) (A) (A) (A) (A)
                 (A) (A) (A) (A) (A) (A) (A) (A) (A) (A) (A) (A)
                 (A) (A) (A) (A) (A) (A) (A) (A) (A) (A) (A) (A)
                 (A) (A) (A) (A) (A) (A) (A) (A) (A) (A) (A) (A)
                 (A) (A) (A) (A) (A) (A) (A) (A) (A) (A) (A) (A)
                 (A) (A) (A) (A) (A) (A) (A) (A) (A) (A) (A) (A)
                 (A) (A) (A) (A) (A) (A) (A) (A) (A) (A) (A) (A)
                 (A) (A) (A) (A) (A) (A) (A) (A) (A) (A) (A) (A)
                 (A) (A) (A) (A) (A) (A) (A) (A) (A) (A) (A) (A)
                 (A) (A) (A) (A) (A) (A) (A) (A) (A) (A) (A) (A)
                 (A) (A) (A) (A) (A) (A) (A) (A) (A) (A) (A) (A)
                 (A) (A) (A) (A) (A) (A) (A) (A) (A) (A) (A) (A)
                 (A) (A) (A) (A) (A) (A) (A) (A) (A) (A) (A) (A)
                 (A) (A) (A) (A) (A) (A) (A) (A) (A) (A) (A) (A)
                 (A) (A) (A) (A) (A) (A) (A) (A) (A) (A) (A) (A)
                 (A) (A) (A) (A) (A) (A) (A) (A) (A) (A) (A) (A)
                 (A) (A) (A) (A) (A) (A) (A) (A) (A) (A) (A) (A)
                 (A) (A) (A) (A) (A) (A) (A) (A) (A) (A) (A) (A)
                 (A) (A) (A) (A) (A) (A) (A) (A) (A) (A) (A) (A)
                 (A) (A) (A) (A) (A) (A) (A) (A) (A) (A) (A) (A)
                 (A) (A) (A) (A) (A) (A) (A) (A) (A) (A) (A) (A)
                 (A) (A) (A) (A) (A) (A) (A) (A) (A) (A) (A) (A)
                 (A) (A) (A) (A) (A) (A) (A) (A) (A) (A) (A) (A)
                 (A) (A) (A) (A) (A) (A) (A) (A) (A) (A) (A) (A)
                 (A) (A) (A) (A) (A) (A) (A) (A) (A) (A) (A) (A)
                 (A) (A) (A) (A) (A) (A) (A) (A) (A) (A) (A) (A)
                 (A) (A) (A) (A) (A) (A) (A) (A) (A) (A) (A) (A)
                 (A) (A) (A) (A) (A) (A) (A) (A) (A) (A) (A) (A)
                 (A) (A) (A) (A) (A) (A) (A) (A) (A) (A) (A) (A)
                 (A) (A) (A) (A) (A) (A) (A) (A) (A) (A) (A) (A)
                 (A) (A) (A) (A) (A) (A) (A) (A) (A) (A) (A) (A)
                 (A) (A) (A) (A) (A) (A) (A) (A) (A) (A) (A) (A)
                 (A) (A) (A) (A) (A) (A) (A) (A) (A) (A) (A) (A)
                 (A) (A) (A) (A) (A) (A) (A) (A) (A) (A) (A) (A)
                 (A) (A) (A) (A) (A) (A) (A) (A) (A) (A) (A) (A)
                 (A) (A) (A) (A) (A) (A) (A) (A) (A) (A) (A) (A)
                 (A) (A) (A) (A) (A) (A) (A) (A) (A) (A) (A) (A)
                 (A) (A) (A) (A) (A) (A) (A) (A) (A) (A) (A) (A)
                 (A) (A) (A) (A) (A) (A) (A) (A) (A) (A) (A) (A)
                 (A) (A) (A) (A) (A) (A) (A) (A) (A) (A) (A) (A)
                 (A) (A) (A) (A) (A) (A) (A) (A) (A) (A) (A) (A)
                 (A) (A) (A) (A) (A) (A) (A) (A) (A) (A) (A) (A)
                 (A) (A) (A) (A) (A) (A) (A) (A) (A) (A) (A) (A)
                 (A) (A) (A) (A) (A) (A) (A) (A) (A) (A) (A) (A)
                 (A) (A) (A) (A) (A) (A) (A) (A) (A) (A) (A) (A)
                 (A) (A) (A) (A) (A) (A) (A) (A) (A) (A) (A) (A)
                 (A) (A) (A) (A) (A) (A) (A) (A) (A) (A) (A) (A)
                 (A) (A) (A) (A) (A) (A) (A) (A) (A) (A) (A) (A)
                 (A) (A) (A) (A) (A) (A) (A) (A) (A) (A) (A) (A)
                 (A) (A) (A) (A) (A) (A) (A) (A) (A) (A) (A) (A)
                 (A) (A) (A) (A) (A) (A) (A) (A) (A) (A) (A) (A)
                 (A) (A) (A) (A) (A) (A) (A) (A) (A) (A) (A) (A)
                 (A) (A) (A) (A) (A) (A) (A) (A) (A) (A) (A) (A)
                 (A) (A) (A) (A) (A) (A) (A) (A) (A) (A) (A) (A)
                 (A) (A) (A) (A) (A) (A) (A) (A) (A) (A) (A) (A)
                 (A) (A) (A) (A) (A) (A) (A) (A) (A) (A) (A) (A)
                 (A) (A) (A) (A) (A) (A) (A) (A) (A) (A) (A) (A)
                 (A) (A) (A) (A) (A) (A) (A) (A) (A) (A) (A) (A)
                 (A) (A) (A) (A) (A) (A) (A) (A) (A) (A) (A) (A)
                 (A) (A) (A) (A) (A) (A) (A) (A) (A) (A) (A) (A)
                 (A) (A) (A) (A) (A) (A) (A) (A) (A) (A) (A) (A)
                 (A) (A) (A) (A) (A) (A) (A) (A) (A) (A) (A) (A)
                 (A) (A) (A) (A) (A) (A) (A) (A) (A) (A) (A) (A)
                 (A) (A) (A) (A) (A) (A) (A) (A) (A) (A) (A) (A)
                 (A) (A) (A) (A) (A) (A) (A) (A) (A) (A) (A) (A)
                 (A) (A) (A) (A) (A) (A) (A) (A) (A) (A) (A) (A)
                 (A) (A) (A) (A) (A) (A) (A) (A) (A) (A) (A) (A)
                 (A) (A) (A) (A) (A) (A) (A) (A) (A) (A) (A) (A)
                 (A) (A) (A) (A) (A) (A) (A) (A) (A) (A) (A) (A)
                 (A) (A) (A) (A) (A) (A) (A) (A) (A) (A) (A) (A)
                 (A) (A) (A) (A) (A) (A) (A) (A) (A) (A) (A) (A)
                 (A) (A) (A) (A) (A) (A) (A) (A) (A) (A) (A) (A)
                 (A) (A) (A) (A) (A) (A) (A) (A) (A) (A) (A) (A)
                 (A) (A) (A) (A) (A) (A) (A) (A) (A) (A) (A) (A)
                 (A) (A) (A) (A) (A) (A) (A) (A) (A) (A) (A) (A)
                 (A) (A) (A) (A) (A) (A) (A) (A) (A) (A) (A) (A)
                 (A) (A) (A) (A) (A) (A) (A) (A) (A) (A) (A) (A)
                 (A) (A) (A) (A) (A) (A) (A) (A) (A) (A) (A) (A)
                 (A) (A) (A) (A) (A) (A) (A) (A) (A) (A) (A) (A)
                 (A) (A) (A) (A) (A) (A) (A) (A) (A) (A) (A) (A)
                 (A) (A) (A) (A) (A) (A) (A) (A) (A) (A) (A) (A)
                 (A) (A) (A) (A) (A) (A) (A) (A) (A) (A) (A) (A)
                 (A) (A) (A) (A) (A) (A) (A) (A) (A) (A) (A) (A)
                 (A) (A) (A) (A) (A) (A) (A) (A) (A) (A) (A) (A)
                 (A) (A) (A) (A) (A) (A) (A) (A) (A) (A) (A) (A)
                 (A) (A) (A) (A) (A) (A) (A) (A) (A) (A) (A) (A)
                 (A) (A) (A) (A) (A) (A) (A) (A) (A) (A) (A) (A)
                 (A) (A) (A) (A) (A) (A) (A) (A) (A) (A) (A) (A)
                 (A) (A) (A) (A) (A) (A) (A) (A) (A) (A) (A) (A)
                 (A) (A) (A) (A) (A) (A) (A) (A) (A) (A) (A) (A)
                 (A) (A) (A) (A) (A) (A) (A) (A) (A) (A) (A) (A)
                 (A) (A) (A) (A) (A) (A) (A) (A) (A) (A) (A) (A)
                 (A) (A) (A) (A) (A) (A) (A) (A) (A) (A) (A) (A)
                 (A) (A) (A) (A) (A) (A) (A) (A) (A) (A) (A) (A)
                 (A) (A) (A) (A) (A) (A) (A) (A) (A) (A) (A) (A)
                 (A) (A) (A) (A) (A) (A) (A) (A) (A) (A) (A) (A)
                 (A) (A) (A) (A) (A) (A) (A) (A) (A) (A) (A) (A)
                 (A) (A) (A) (A) (A) (A) (A) (A) (A) (A) (A) (A)
                 (A) (A) (A) (A) (A) (A) (A) (A) (A) (A) (A) (A)
                 (A) (A) (A) (A) (A) (A) (A) (A) (A) (A) (A) (A)
                 (A) (A) (A) (A) (A) (A) (A) (A) (A) (A) (A) (A)
                 (A) (A) (A) (A) (A) (A) (A) (A) (A) (A) (A) (A)
                 (A) (A) (A) (A) (A) (A) (A) (A) (A) (A) (A) (A)
                 (A) (A) (A) (A) (A) (A) (A) (A) (A) (A) (A) (A)
                 (A) (A) (A) (A) (A) (A) (A) (A) (A) (A) (A) (A)
                 (A) (A) (A) (A) (A) (A) (A) (A) (A) (A) (A) (A)
                 (A) (A) (A) (A) (A) (A) (A) (A) (A) (A) (A) (A)
                 (A) (A) (A) (A) (A) (A) (A) (A) (A) (A) (A) (A)
                 (A) (A) (A) (A) (A) (A) (A) (A) (A) (A) (A) (A)
                 (A) (A) (A) (A) (A) (A) (A) (A) (A) (A) (A) (A)
                 (A) (A) (A) (A) (A) (A) (A) (A) (A) (A) (A) (A)
                 (A) (A) (A) (A) (A) (A) (A) (A) (A) (A) (A) (A)
                 (A) (A) (A) (A) (A) (A) (A) (A) (A) (A) (A) (A)
                 (A) (A) (A) (A) (A) (A) (A) (A) (A) (A) (A) (A)
                 (A) (A) (A) (A) (A) (A) (A) (A) (A) (A) (A) (A)
                 (A) (A) (A) (A) (A) (A) (A) (A) (A) (A) (A) (A)
                 (A) (A) (A) (A) (A) (A) (A) (A) (A) (A) (A) (A)
                 (A) (A) (A) (A) (A) (A) (A) (A) (A) (A) (A) (A)
                 (A) (A) (A) (A) (A) (A) (A) (A) (A) (A) (A) (A)
                 (A) (A) (A) (A) (A) (A) (A) (A) (A) (A) (A) (A)
                 (A) (A) (A) (A) (A) (A) (A) (A) (A) (A) (A) (A)
                 (A) (A) (A) (A) (A) (A) (A) (A) (A) (A) (A) (A)
                 (A) (A) (A) (A) (A) (A) (A) (A) (A) (A) (A) (A)
                 (A) (A) (A) (A) (A) (A) (A) (A) (A) (A) (A) (A)
                 (A) (A) (A) (A) (A) (A) (A) (A) (A) (A) (A) (A)
                 (A) (A) (A) (A) (A) (A) (A) (A) (A) (A) (A) (A)
                 (A) (A) (A) (A) (A) (A) (A) (A) (A) (A) (A) (A)
                 (A) (A) (A) (A) (A) (A) (A) (A) (A) (A) (A) (A)
                 (A) (A) (A) (A) (A) (A) (A) (A) (A) (A) (A) (A)
                 (A) (A) (A) (A) (A) (A) (A) (A) (A) (A) (A) (A)
                 (A) (A) (A) (A) (A) (A) (A) (A) (A) (A) (A) (A)
                 (A) (A) (A) (A) (A) (A) (A) (A) (A) (A) (A) (A)
                 (A) (A) (A) (A) (A) (A) (A) (A) (A) (A) (A) (A)
                 (A) (A) (A) (A) (A) (A) (A) (A) (A) (A) (A) (A)
                 (A) (A) (A) (A) (A) (A) (A) (A) (A) (A) (A) (A)
                 (A) (A) (A) (A) (A) (A) (A) (A) (A) (A) (A) (A)
                 (A) (A) (A) (A) (A) (A) (A) (A) (A) (A) (A) (A)
                 (A) (A) (A) (A) (A) (A) (A) (A) (A) (A) (A) (A)
                 (A) (A) (A) (A) (A) (A) (A) (A) (A) (A) (A) (A)
                 (A) (A) (A) (A) (A) (A) (A) (A) (A) (A) (A) (A)
                 (A) (A) (A) (A) (A) (A) (A) (A) (A) (A) (A) (A)
                 (A) (A) (A) (A) (A) (A) (A) (A) (A) (A) (A) (A)
                 (A) (A) (A) (A) (A) (A) (A) (A) (A) (A) (A) (A)
                 (A) (A) (A) (A) (A) (A) (A) (A) (A) (A) (A) (A)
                 (A) (A) (A) (A) (A) (A) (A) (A) (A) (A) (A) (A)
                 (A) (A) (A) (A) (A) (A) (A) (A) (A) (A) (A) (A)
                 (A) (A) (A) (A) (A) (A) (A) (A) (A) (A) (A) (A)
                 (A) (A) (A) (A) (A) (A) (A) (A) (A) (A) (A) (A)
                 (A) (A) (A) (A) (A) (A) (A) (A) (A) (A) (A) (A)
                 (A) (A) (A) (A) (A) (A) (A) (A) (A) (A) (A) (A)
                 (A) (A) (A) (A) (A) (A) (A) (A) (A) (A) (A) (A)
                 (A) (A) (A) (A) (A) (A) (A) (A) (A) (A) (A) (A)
                 (A) (A) (A) (A) (A) (A) (A) (A) (A) (A) (A) (A)
                 (A) (A) (A) (A) (A) (A) (A) (A) (A) (A) (A) (A)
                 (A) (A) (A) (A) (A) (A) (A) (A) (A) (A) (A) (A)
                 (A) (A)
 Beta  Orbitals:
       Occupied  (A) (A) (A) (A) (A) (A) (A) (A) (A) (A) (A) (A)
                 (A) (A) (A) (A) (A) (A) (A) (A) (A) (A) (A) (A)
                 (A) (A) (A) (A) (A) (A) (A) (A) (A) (A) (A) (A)
                 (A) (A) (A) (A) (A) (A) (A) (A) (A) (A) (A) (A)
                 (A) (A) (A) (A) (A) (A) (A) (A) (A) (A) (A) (A)
                 (A) (A) (A) (A) (A) (A) (A) (A) (A) (A) (A) (A)
                 (A) (A) (A) (A) (A) (A) (A) (A) (A) (A) (A) (A)
                 (A) (A) (A) (A) (A) (A) (A) (A) (A) (A) (A) (A)
                 (A) (A) (A) (A) (A) (A) (A) (A) (A) (A) (A) (A)
                 (A) (A) (A) (A) (A) (A) (A) (A) (A) (A) (A) (A)
                 (A) (A) (A) (A) (A) (A) (A) (A) (A) (A) (A) (A)
                 (A) (A) (A) (A) (A) (A) (A) (A) (A) (A) (A) (A)
                 (A) (A) (A) (A) (A) (A) (A) (A) (A) (A) (A) (A)
                 (A) (A) (A) (A) (A) (A) (A) (A) (A) (A) (A) (A)
                 (A) (A) (A) (A) (A) (A) (A) (A) (A) (A) (A) (A)
                 (A) (A) (A) (A) (A)
       Virtual   (A) (A) (A) (A) (A) (A) (A) (A) (A) (A) (A) (A)
                 (A) (A) (A) (A) (A) (A) (A) (A) (A) (A) (A) (A)
                 (A) (A) (A) (A) (A) (A) (A) (A) (A) (A) (A) (A)
                 (A) (A) (A) (A) (A) (A) (A) (A) (A) (A) (A) (A)
                 (A) (A) (A) (A) (A) (A) (A) (A) (A) (A) (A) (A)
                 (A) (A) (A) (A) (A) (A) (A) (A) (A) (A) (A) (A)
                 (A) (A) (A) (A) (A) (A) (A) (A) (A) (A) (A) (A)
                 (A) (A) (A) (A) (A) (A) (A) (A) (A) (A) (A) (A)
                 (A) (A) (A) (A) (A) (A) (A) (A) (A) (A) (A) (A)
                 (A) (A) (A) (A) (A) (A) (A) (A) (A) (A) (A) (A)
                 (A) (A) (A) (A) (A) (A) (A) (A) (A) (A) (A) (A)
                 (A) (A) (A) (A) (A) (A) (A) (A) (A) (A) (A) (A)
                 (A) (A) (A) (A) (A) (A) (A) (A) (A) (A) (A) (A)
                 (A) (A) (A) (A) (A) (A) (A) (A) (A) (A) (A) (A)
                 (A) (A) (A) (A) (A) (A) (A) (A) (A) (A) (A) (A)
                 (A) (A) (A) (A) (A) (A) (A) (A) (A) (A) (A) (A)
                 (A) (A) (A) (A) (A) (A) (A) (A) (A) (A) (A) (A)
                 (A) (A) (A) (A) (A) (A) (A) (A) (A) (A) (A) (A)
                 (A) (A) (A) (A) (A) (A) (A) (A) (A) (A) (A) (A)
                 (A) (A) (A) (A) (A) (A) (A) (A) (A) (A) (A) (A)
                 (A) (A) (A) (A) (A) (A) (A) (A) (A) (A) (A) (A)
                 (A) (A) (A) (A) (A) (A) (A) (A) (A) (A) (A) (A)
                 (A) (A) (A) (A) (A) (A) (A) (A) (A) (A) (A) (A)
                 (A) (A) (A) (A) (A) (A) (A) (A) (A) (A) (A) (A)
                 (A) (A) (A) (A) (A) (A) (A) (A) (A) (A) (A) (A)
                 (A) (A) (A) (A) (A) (A) (A) (A) (A) (A) (A) (A)
                 (A) (A) (A) (A) (A) (A) (A) (A) (A) (A) (A) (A)
                 (A) (A) (A) (A) (A) (A) (A) (A) (A) (A) (A) (A)
                 (A) (A) (A) (A) (A) (A) (A) (A) (A) (A) (A) (A)
                 (A) (A) (A) (A) (A) (A) (A) (A) (A) (A) (A) (A)
                 (A) (A) (A) (A) (A) (A) (A) (A) (A) (A) (A) (A)
                 (A) (A) (A) (A) (A) (A) (A) (A) (A) (A) (A) (A)
                 (A) (A) (A) (A) (A) (A) (A) (A) (A) (A) (A) (A)
                 (A) (A) (A) (A) (A) (A) (A) (A) (A) (A) (A) (A)
                 (A) (A) (A) (A) (A) (A) (A) (A) (A) (A) (A) (A)
                 (A) (A) (A) (A) (A) (A) (A) (A) (A) (A) (A) (A)
                 (A) (A) (A) (A) (A) (A) (A) (A) (A) (A) (A) (A)
                 (A) (A) (A) (A) (A) (A) (A) (A) (A) (A) (A) (A)
                 (A) (A) (A) (A) (A) (A) (A) (A) (A) (A) (A) (A)
                 (A) (A) (A) (A) (A) (A) (A) (A) (A) (A) (A) (A)
                 (A) (A) (A) (A) (A) (A) (A) (A) (A) (A) (A) (A)
                 (A) (A) (A) (A) (A) (A) (A) (A) (A) (A) (A) (A)
                 (A) (A) (A) (A) (A) (A) (A) (A) (A) (A) (A) (A)
                 (A) (A) (A) (A) (A) (A) (A) (A) (A) (A) (A) (A)
                 (A) (A) (A) (A) (A) (A) (A) (A) (A) (A) (A) (A)
                 (A) (A) (A) (A) (A) (A) (A) (A) (A) (A) (A) (A)
                 (A) (A) (A) (A) (A) (A) (A) (A) (A) (A) (A) (A)
                 (A) (A) (A) (A) (A) (A) (A) (A) (A) (A) (A) (A)
                 (A) (A) (A) (A) (A) (A) (A) (A) (A) (A) (A) (A)
                 (A) (A) (A) (A) (A) (A) (A) (A) (A) (A) (A) (A)
                 (A) (A) (A) (A) (A) (A) (A) (A) (A) (A) (A) (A)
                 (A) (A) (A) (A) (A) (A) (A) (A) (A) (A) (A) (A)
                 (A) (A) (A) (A) (A) (A) (A) (A) (A) (A) (A) (A)
                 (A) (A) (A) (A) (A) (A) (A) (A) (A) (A) (A) (A)
                 (A) (A) (A) (A) (A) (A) (A) (A) (A) (A) (A) (A)
                 (A) (A) (A) (A) (A) (A) (A) (A) (A) (A) (A) (A)
                 (A) (A) (A) (A) (A) (A) (A) (A) (A) (A) (A) (A)
                 (A) (A) (A) (A) (A) (A) (A) (A) (A) (A) (A) (A)
                 (A) (A) (A) (A) (A) (A) (A) (A) (A) (A) (A) (A)
                 (A) (A) (A) (A) (A) (A) (A) (A) (A) (A) (A) (A)
                 (A) (A) (A) (A) (A) (A) (A) (A) (A) (A) (A) (A)
                 (A) (A) (A) (A) (A) (A) (A) (A) (A) (A) (A) (A)
                 (A) (A) (A) (A) (A) (A) (A) (A) (A) (A) (A) (A)
                 (A) (A) (A) (A) (A) (A) (A) (A) (A) (A) (A) (A)
                 (A) (A) (A) (A) (A) (A) (A) (A) (A) (A) (A) (A)
                 (A) (A) (A) (A) (A) (A) (A) (A) (A) (A) (A) (A)
                 (A) (A) (A) (A) (A) (A) (A) (A) (A) (A) (A) (A)
                 (A) (A) (A) (A) (A) (A) (A) (A) (A) (A) (A) (A)
                 (A) (A) (A) (A) (A) (A) (A) (A) (A) (A) (A) (A)
                 (A) (A) (A) (A) (A) (A) (A) (A) (A) (A) (A) (A)
                 (A) (A) (A) (A) (A) (A) (A) (A) (A) (A) (A) (A)
                 (A) (A) (A) (A) (A) (A) (A) (A) (A) (A) (A) (A)
                 (A) (A) (A) (A) (A) (A) (A) (A) (A) (A) (A) (A)
                 (A) (A) (A) (A) (A) (A) (A) (A) (A) (A) (A) (A)
                 (A) (A) (A) (A) (A) (A) (A) (A) (A) (A) (A) (A)
                 (A) (A) (A) (A) (A) (A) (A) (A) (A) (A) (A) (A)
                 (A) (A) (A) (A) (A) (A) (A) (A) (A) (A) (A) (A)
                 (A) (A) (A) (A) (A) (A) (A) (A) (A) (A) (A) (A)
                 (A) (A) (A) (A) (A) (A) (A) (A) (A) (A) (A) (A)
                 (A) (A) (A) (A) (A) (A) (A) (A) (A) (A) (A) (A)
                 (A) (A) (A) (A) (A) (A) (A) (A) (A) (A) (A) (A)
                 (A) (A) (A) (A) (A) (A) (A) (A) (A) (A) (A) (A)
                 (A) (A) (A) (A) (A) (A) (A) (A) (A) (A) (A) (A)
                 (A) (A) (A) (A) (A) (A) (A) (A) (A) (A) (A) (A)
                 (A) (A) (A) (A) (A) (A) (A) (A) (A) (A) (A) (A)
                 (A) (A) (A) (A) (A) (A) (A) (A) (A) (A) (A) (A)
                 (A) (A) (A) (A) (A) (A) (A) (A) (A) (A) (A) (A)
                 (A) (A) (A) (A) (A) (A) (A) (A) (A) (A) (A) (A)
                 (A) (A) (A) (A) (A) (A) (A) (A) (A) (A) (A) (A)
                 (A) (A) (A) (A) (A) (A) (A) (A) (A) (A) (A) (A)
                 (A) (A) (A) (A) (A) (A) (A) (A) (A) (A) (A) (A)
                 (A) (A) (A) (A) (A) (A) (A) (A) (A) (A) (A) (A)
                 (A) (A) (A) (A) (A) (A) (A) (A) (A) (A) (A) (A)
                 (A) (A) (A) (A) (A) (A) (A) (A) (A) (A) (A) (A)
                 (A) (A) (A) (A) (A) (A) (A) (A) (A) (A) (A) (A)
                 (A) (A) (A) (A) (A) (A) (A) (A) (A) (A) (A) (A)
                 (A) (A) (A) (A) (A) (A) (A) (A) (A) (A) (A) (A)
                 (A) (A) (A) (A) (A) (A) (A) (A) (A) (A) (A) (A)
                 (A) (A) (A) (A) (A) (A) (A) (A) (A) (A) (A) (A)
                 (A) (A) (A) (A) (A) (A) (A) (A) (A) (A) (A) (A)
                 (A) (A) (A) (A) (A) (A) (A) (A) (A) (A) (A) (A)
                 (A) (A) (A) (A) (A) (A) (A) (A) (A) (A) (A) (A)
                 (A) (A) (A) (A) (A) (A) (A) (A) (A) (A) (A) (A)
                 (A) (A) (A) (A) (A) (A) (A) (A) (A) (A) (A) (A)
                 (A) (A) (A) (A) (A) (A) (A) (A) (A) (A) (A) (A)
                 (A) (A) (A) (A) (A) (A) (A) (A) (A) (A) (A) (A)
                 (A) (A) (A) (A) (A) (A) (A) (A) (A) (A) (A) (A)
                 (A) (A) (A) (A) (A) (A) (A) (A) (A) (A) (A) (A)
                 (A) (A) (A) (A) (A) (A) (A) (A) (A) (A) (A) (A)
                 (A) (A) (A) (A) (A) (A) (A) (A) (A) (A) (A) (A)
                 (A) (A) (A) (A) (A) (A) (A) (A) (A) (A) (A) (A)
                 (A) (A) (A) (A) (A) (A) (A) (A) (A) (A) (A) (A)
                 (A) (A) (A) (A) (A) (A) (A) (A) (A) (A) (A) (A)
                 (A) (A) (A) (A) (A) (A) (A) (A) (A) (A) (A) (A)
                 (A) (A) (A) (A) (A) (A) (A) (A) (A) (A) (A) (A)
                 (A) (A) (A) (A) (A) (A) (A) (A) (A) (A) (A) (A)
                 (A) (A) (A) (A) (A) (A) (A) (A) (A) (A) (A) (A)
                 (A) (A) (A) (A) (A) (A) (A) (A) (A) (A) (A) (A)
                 (A) (A) (A) (A) (A) (A) (A) (A) (A) (A) (A) (A)
                 (A) (A) (A) (A) (A) (A) (A) (A) (A) (A) (A) (A)
                 (A) (A) (A) (A) (A) (A) (A) (A) (A) (A) (A) (A)
                 (A) (A) (A) (A) (A) (A) (A) (A) (A) (A) (A) (A)
                 (A) (A) (A) (A) (A) (A) (A) (A) (A) (A) (A) (A)
                 (A) (A) (A) (A) (A) (A) (A) (A) (A) (A) (A) (A)
                 (A) (A) (A) (A) (A) (A) (A) (A) (A) (A) (A) (A)
                 (A) (A) (A) (A) (A) (A) (A) (A) (A) (A) (A) (A)
                 (A) (A) (A) (A) (A) (A) (A) (A) (A) (A) (A) (A)
                 (A) (A) (A) (A) (A) (A) (A) (A) (A) (A) (A) (A)
                 (A) (A) (A) (A) (A) (A) (A) (A) (A) (A) (A) (A)
                 (A) (A) (A) (A) (A) (A) (A) (A) (A) (A) (A) (A)
                 (A) (A) (A) (A) (A) (A) (A) (A) (A) (A) (A) (A)
                 (A) (A) (A) (A) (A) (A) (A) (A) (A) (A) (A) (A)
                 (A) (A) (A) (A) (A) (A) (A) (A) (A) (A) (A) (A)
                 (A) (A) (A) (A) (A) (A) (A) (A) (A) (A) (A) (A)
                 (A) (A) (A) (A) (A) (A) (A) (A) (A) (A) (A) (A)
                 (A) (A) (A) (A) (A) (A) (A) (A) (A) (A) (A) (A)
                 (A) (A) (A) (A) (A) (A) (A) (A) (A) (A) (A) (A)
                 (A) (A) (A) (A) (A) (A) (A) (A) (A) (A) (A) (A)
                 (A) (A) (A) (A) (A) (A) (A) (A) (A) (A) (A) (A)
                 (A) (A) (A) (A) (A) (A) (A) (A) (A) (A) (A) (A)
                 (A) (A) (A) (A) (A) (A) (A) (A) (A) (A) (A) (A)
                 (A) (A) (A) (A) (A) (A) (A) (A) (A) (A) (A) (A)
                 (A) (A) (A) (A) (A) (A) (A) (A) (A) (A) (A) (A)
                 (A) (A) (A) (A) (A) (A) (A) (A) (A) (A) (A) (A)
                 (A) (A) (A) (A) (A) (A) (A) (A) (A) (A) (A) (A)
                 (A) (A) (A) (A) (A) (A) (A) (A) (A) (A) (A) (A)
                 (A) (A) (A) (A) (A) (A) (A) (A) (A) (A) (A) (A)
                 (A) (A) (A) (A) (A) (A) (A) (A) (A) (A) (A) (A)
                 (A) (A) (A) (A) (A) (A) (A) (A) (A) (A) (A) (A)
                 (A) (A) (A) (A) (A) (A) (A) (A) (A) (A) (A) (A)
                 (A) (A) (A) (A) (A) (A) (A) (A) (A) (A) (A) (A)
                 (A) (A) (A) (A) (A) (A) (A) (A) (A) (A) (A) (A)
                 (A) (A) (A) (A) (A) (A) (A) (A) (A) (A) (A) (A)
                 (A) (A) (A) (A) (A) (A) (A) (A) (A) (A) (A) (A)
                 (A) (A) (A) (A) (A) (A) (A) (A) (A) (A) (A) (A)
                 (A) (A) (A) (A) (A) (A) (A) (A) (A) (A) (A) (A)
                 (A) (A) (A) (A) (A) (A) (A) (A) (A) (A) (A) (A)
                 (A) (A) (A) (A) (A) (A) (A) (A) (A) (A) (A) (A)
                 (A) (A) (A) (A) (A) (A) (A) (A) (A) (A) (A) (A)
                 (A) (A) (A) (A) (A) (A) (A) (A) (A) (A) (A) (A)
                 (A) (A) (A)
 The electronic state is 2-A.
 Alpha  occ. eigenvalues --  -25.19174 -25.18931 -19.66112 -19.66026 -19.65921
 Alpha  occ. eigenvalues --  -14.76670 -14.76489 -14.76409 -14.76368 -10.60984
 Alpha  occ. eigenvalues --  -10.60821 -10.60641 -10.59426 -10.59336 -10.58838
 Alpha  occ. eigenvalues --  -10.58807 -10.58793 -10.58763 -10.58709 -10.57939
 Alpha  occ. eigenvalues --  -10.57506 -10.57459 -10.57422 -10.57183 -10.56955
 Alpha  occ. eigenvalues --  -10.56842 -10.56799 -10.56757 -10.56730 -10.55942
 Alpha  occ. eigenvalues --  -10.55630 -10.55617 -10.55602 -10.55573 -10.55420
 Alpha  occ. eigenvalues --  -10.55227 -10.55174 -10.54995 -10.54806 -10.54792
 Alpha  occ. eigenvalues --  -10.54656 -10.54621 -10.54614 -10.54559 -10.54437
 Alpha  occ. eigenvalues --  -10.54418 -10.54394 -10.54250 -10.54230 -10.54128
 Alpha  occ. eigenvalues --  -10.53675 -10.52995 -10.52665  -7.11579  -1.30810
 Alpha  occ. eigenvalues --   -1.27683  -1.18870  -1.18767  -1.18632  -1.08306
 Alpha  occ. eigenvalues --   -1.06432  -1.02511  -1.02448  -0.98268  -0.98116
 Alpha  occ. eigenvalues --   -0.96460  -0.96290  -0.96021  -0.91966  -0.90654
 Alpha  occ. eigenvalues --   -0.88938  -0.87285  -0.87055  -0.86195  -0.86117
 Alpha  occ. eigenvalues --   -0.85151  -0.85020  -0.84956  -0.84708  -0.84285
 Alpha  occ. eigenvalues --   -0.83713  -0.81172  -0.79657  -0.78724  -0.77534
 Alpha  occ. eigenvalues --   -0.75601  -0.74130  -0.71859  -0.71060  -0.70740
 Alpha  occ. eigenvalues --   -0.70039  -0.69763  -0.69587  -0.69097  -0.67938
 Alpha  occ. eigenvalues --   -0.67492  -0.65571  -0.64690  -0.64437  -0.63746
 Alpha  occ. eigenvalues --   -0.63597  -0.62922  -0.61635  -0.61281  -0.60389
 Alpha  occ. eigenvalues --   -0.59762  -0.59038  -0.58422  -0.56990  -0.56170
 Alpha  occ. eigenvalues --   -0.56014  -0.55744  -0.55081  -0.55011  -0.54845
 Alpha  occ. eigenvalues --   -0.54786  -0.54706  -0.54424  -0.53764  -0.53482
 Alpha  occ. eigenvalues --   -0.52918  -0.52118  -0.51750  -0.51730  -0.51415
 Alpha  occ. eigenvalues --   -0.51325  -0.50590  -0.50468  -0.50267  -0.50007
 Alpha  occ. eigenvalues --   -0.49732  -0.49455  -0.49386  -0.49185  -0.48768
 Alpha  occ. eigenvalues --   -0.48472  -0.48173  -0.47945  -0.47913  -0.47659
 Alpha  occ. eigenvalues --   -0.47351  -0.46555  -0.46473  -0.46057  -0.45890
 Alpha  occ. eigenvalues --   -0.45609  -0.45405  -0.45162  -0.45020  -0.44902
 Alpha  occ. eigenvalues --   -0.43794  -0.43540  -0.43313  -0.43185  -0.42944
 Alpha  occ. eigenvalues --   -0.42903  -0.42675  -0.42548  -0.42445  -0.41870
 Alpha  occ. eigenvalues --   -0.41585  -0.41478  -0.40816  -0.40332  -0.40149
 Alpha  occ. eigenvalues --   -0.39662  -0.39462  -0.39316  -0.39144  -0.38982
 Alpha  occ. eigenvalues --   -0.38445  -0.36393  -0.34150  -0.32899  -0.32854
 Alpha  occ. eigenvalues --   -0.32118  -0.31709  -0.31406  -0.30963  -0.30943
 Alpha  occ. eigenvalues --   -0.29807  -0.28660  -0.27895  -0.26992  -0.24400
 Alpha  occ. eigenvalues --   -0.18245
 Alpha virt. eigenvalues --   -0.03392  -0.02603   0.00122   0.00554   0.00618
 Alpha virt. eigenvalues --    0.01126   0.01797   0.02165   0.02259   0.03246
 Alpha virt. eigenvalues --    0.06365   0.06505   0.06559   0.06979   0.07243
 Alpha virt. eigenvalues --    0.07513   0.07759   0.08095   0.08333   0.08445
 Alpha virt. eigenvalues --    0.08978   0.09221   0.09510   0.09804   0.10014
 Alpha virt. eigenvalues --    0.10115   0.10251   0.10455   0.10786   0.11160
 Alpha virt. eigenvalues --    0.11247   0.11610   0.11872   0.12054   0.12480
 Alpha virt. eigenvalues --    0.12640   0.12752   0.13061   0.13374   0.13651
 Alpha virt. eigenvalues --    0.13993   0.14275   0.14460   0.14595   0.14747
 Alpha virt. eigenvalues --    0.14960   0.15090   0.15255   0.15484   0.15737
 Alpha virt. eigenvalues --    0.16033   0.16173   0.16303   0.16650   0.16839
 Alpha virt. eigenvalues --    0.17004   0.17397   0.17701   0.17982   0.18252
 Alpha virt. eigenvalues --    0.18460   0.18721   0.18731   0.19101   0.19372
 Alpha virt. eigenvalues --    0.19519   0.19889   0.20191   0.20431   0.20859
 Alpha virt. eigenvalues --    0.21318   0.21475   0.21634   0.21969   0.22106
 Alpha virt. eigenvalues --    0.22245   0.22716   0.22806   0.23261   0.23294
 Alpha virt. eigenvalues --    0.23510   0.23698   0.23825   0.24032   0.24276
 Alpha virt. eigenvalues --    0.24394   0.24636   0.24716   0.24825   0.25027
 Alpha virt. eigenvalues --    0.25162   0.25665   0.25764   0.25833   0.25954
 Alpha virt. eigenvalues --    0.26024   0.26359   0.26435   0.26603   0.27163
 Alpha virt. eigenvalues --    0.27371   0.27497   0.27595   0.27797   0.27825
 Alpha virt. eigenvalues --    0.28007   0.28172   0.28353   0.28668   0.28878
 Alpha virt. eigenvalues --    0.29278   0.29399   0.29555   0.29940   0.30337
 Alpha virt. eigenvalues --    0.30338   0.30527   0.30682   0.31187   0.31362
 Alpha virt. eigenvalues --    0.31426   0.31585   0.31814   0.32286   0.32368
 Alpha virt. eigenvalues --    0.32552   0.32674   0.32697   0.33041   0.33151
 Alpha virt. eigenvalues --    0.33340   0.33569   0.33884   0.34162   0.34344
 Alpha virt. eigenvalues --    0.34595   0.34858   0.35081   0.35337   0.35546
 Alpha virt. eigenvalues --    0.35791   0.35809   0.36094   0.36238   0.36490
 Alpha virt. eigenvalues --    0.36817   0.36932   0.37079   0.37149   0.37252
 Alpha virt. eigenvalues --    0.37650   0.37860   0.38041   0.38214   0.38420
 Alpha virt. eigenvalues --    0.38519   0.38711   0.38883   0.39135   0.39216
 Alpha virt. eigenvalues --    0.39329   0.39754   0.39798   0.39943   0.40301
 Alpha virt. eigenvalues --    0.40515   0.40596   0.40613   0.40836   0.40941
 Alpha virt. eigenvalues --    0.41172   0.41382   0.41461   0.41684   0.41772
 Alpha virt. eigenvalues --    0.42097   0.42141   0.42302   0.42378   0.42709
 Alpha virt. eigenvalues --    0.43086   0.43238   0.43514   0.43695   0.43778
 Alpha virt. eigenvalues --    0.44052   0.44170   0.44333   0.44434   0.44537
 Alpha virt. eigenvalues --    0.44630   0.45047   0.45147   0.45256   0.45484
 Alpha virt. eigenvalues --    0.45779   0.45927   0.46115   0.46211   0.46339
 Alpha virt. eigenvalues --    0.46617   0.47000   0.47110   0.47333   0.47456
 Alpha virt. eigenvalues --    0.47576   0.47859   0.47888   0.48037   0.48290
 Alpha virt. eigenvalues --    0.48490   0.48706   0.48720   0.49007   0.49370
[...]
 
              Baa    -0.0345    -4.624    -1.650    -1.542 -0.4300  0.4831  0.7627
    22 C(13)  Bbb    -0.0272    -3.650    -1.302    -1.218  0.0965  0.8646 -0.4932
              Bcc     0.0617     8.274     2.952     2.760  0.8976  0.1385  0.4184
 
              Baa    -0.0222    -2.983    -1.064    -0.995  0.7477  0.0762  0.6596
    23 C(13)  Bbb     0.0078     1.044     0.373     0.348 -0.6640  0.0873  0.7426
              Bcc     0.0144     1.938     0.692     0.647  0.0010  0.9933 -0.1158
 
              Baa    -0.0420    -5.633    -2.010    -1.879  0.7334 -0.0549 -0.6776
    24 C(13)  Bbb    -0.0371    -4.983    -1.778    -1.662  0.0541  0.9983 -0.0223
              Bcc     0.0791    10.616     3.788     3.541  0.6777 -0.0203  0.7351
 
              Baa    -0.0098    -1.314    -0.469    -0.438  0.7411 -0.0257  0.6709
    25 C(13)  Bbb    -0.0025    -0.337    -0.120    -0.112 -0.6692  0.0524  0.7412
              Bcc     0.0123     1.651     0.589     0.551  0.0543  0.9983 -0.0216
 
              Baa    -0.0343    -1.323    -0.472    -0.441  0.0531  0.9983 -0.0233
    26 N(14)  Bbb    -0.0268    -1.033    -0.369    -0.345 -0.6876  0.0535  0.7241
              Bcc     0.0611     2.356     0.841     0.786  0.7241 -0.0224  0.6893
 
              Baa    -0.0241    -3.229    -1.152    -1.077  0.7383 -0.0993  0.6671
    27 C(13)  Bbb     0.0089     1.196     0.427     0.399 -0.6675  0.0344  0.7438
              Bcc     0.0152     2.033     0.725     0.678  0.0968  0.9945  0.0409
 
              Baa    -0.0346    -4.648    -1.658    -1.550 -0.4674 -0.3892  0.7937
    28 C(13)  Bbb    -0.0281    -3.776    -1.347    -1.259 -0.0055  0.8991  0.4376
              Bcc     0.0628     8.423     3.006     2.810  0.8840 -0.2002  0.4225
 
              Baa    -0.0768   -10.308    -3.678    -3.439  0.0627  0.0198  0.9978
    29 C(13)  Bbb     0.0311     4.177     1.491     1.393 -0.4498  0.8931  0.0105
              Bcc     0.0457     6.131     2.188     2.045  0.8909  0.4495 -0.0649
 
              Baa    -0.0947   -12.704    -4.533    -4.238  0.3671  0.9244 -0.1032
    30 C(13)  Bbb    -0.0931   -12.486    -4.455    -4.165  0.9289 -0.3702 -0.0120
              Bcc     0.1877    25.191     8.989     8.403  0.0493  0.0915  0.9946
 
              Baa    -0.0199    -2.668    -0.952    -0.890 -0.0771  0.0686  0.9947
    31 C(13)  Bbb     0.0091     1.224     0.437     0.408  0.1192  0.9911 -0.0591
              Bcc     0.0108     1.443     0.515     0.481  0.9899 -0.1140  0.0846
 
              Baa    -0.0024    -0.321    -0.114    -0.107  0.1091  0.7678  0.6314
    32 C(13)  Bbb     0.0008     0.107     0.038     0.036  0.9327 -0.2987  0.2020
              Bcc     0.0016     0.214     0.076     0.071 -0.3437 -0.5669  0.7487
 
              Baa    -0.0029    -0.394    -0.141    -0.131  0.0050  0.7954 -0.6060
    33 C(13)  Bbb    -0.0000    -0.005    -0.002    -0.002 -0.0644  0.6050  0.7936
              Bcc     0.0030     0.398     0.142     0.133  0.9979  0.0351  0.0543
 
              Baa    -0.0012    -0.165    -0.059    -0.055 -0.1860  0.7932  0.5798
    34 C(13)  Bbb     0.0001     0.010     0.004     0.003  0.8784  0.3987 -0.2636
              Bcc     0.0011     0.154     0.055     0.051  0.4402 -0.4603  0.7709
 
              Baa    -0.0009    -0.119    -0.042    -0.040 -0.2240 -0.6198  0.7521
    35 C(13)  Bbb    -0.0001    -0.018    -0.006    -0.006 -0.0643  0.7794  0.6232
              Bcc     0.0010     0.136     0.049     0.045  0.9725 -0.0913  0.2144
 
              Baa    -0.0003    -0.035    -0.012    -0.012  0.0419  0.8047  0.5922
    36 C(13)  Bbb    -0.0001    -0.019    -0.007    -0.006  0.2555 -0.5817  0.7722
              Bcc     0.0004     0.054     0.019     0.018  0.9659  0.1190 -0.2300
 
              Baa    -0.0003    -0.012    -0.004    -0.004 -0.2118  0.9393 -0.2700
    37 N(14)  Bbb    -0.0001    -0.004    -0.002    -0.001  0.3320  0.3290  0.8840
              Bcc     0.0004     0.016     0.006     0.005  0.9192  0.0976 -0.3815
 
              Baa    -0.0005    -0.071    -0.025    -0.024  0.1776  0.8332  0.5236
    38 C(13)  Bbb    -0.0002    -0.033    -0.012    -0.011 -0.1738 -0.4972  0.8501
              Bcc     0.0008     0.104     0.037     0.035  0.9686 -0.2420  0.0565
 
              Baa    -0.0033    -0.444    -0.159    -0.148  0.2538 -0.0911  0.9630
    39 C(13)  Bbb     0.0008     0.110     0.039     0.037 -0.3856  0.9035  0.1871
              Bcc     0.0025     0.334     0.119     0.111  0.8871  0.4188 -0.1942
 
              Baa    -0.0742    -9.952    -3.551    -3.319  0.9892  0.1180 -0.0864
    40 C(13)  Bbb    -0.0712    -9.548    -3.407    -3.185 -0.1212  0.9921 -0.0324
              Bcc     0.1453    19.500     6.958     6.504  0.0819  0.0425  0.9957
 
              Baa    -0.0083    -1.116    -0.398    -0.372  0.8193 -0.2108  0.5332
    41 C(13)  Bbb     0.0028     0.372     0.133     0.124 -0.4900  0.2254  0.8420
              Bcc     0.0055     0.744     0.265     0.248  0.2977  0.9512 -0.0814
 
              Baa    -0.0066    -0.890    -0.317    -0.297 -0.1678  0.5905  0.7894
    42 C(13)  Bbb    -0.0040    -0.532    -0.190    -0.178 -0.1802  0.7689 -0.6134
              Bcc     0.0106     1.422     0.507     0.474  0.9692  0.2452  0.0226
 
              Baa    -0.0039    -0.521    -0.186    -0.174  0.7850 -0.3603  0.5040
    43 C(13)  Bbb     0.0002     0.030     0.011     0.010 -0.3759  0.3697  0.8497
              Bcc     0.0037     0.491     0.175     0.164  0.4925  0.8565 -0.1548
 
              Baa    -0.0046    -0.619    -0.221    -0.206 -0.4151  0.2634  0.8708
    44 C(13)  Bbb    -0.0032    -0.424    -0.151    -0.142  0.3443  0.9315 -0.1177
              Bcc     0.0078     1.043     0.372     0.348  0.8421 -0.2509  0.4774
 
              Baa    -0.0046     0.335     0.120     0.112 -0.5186 -0.4745  0.7113
    45 O(17)  Bbb    -0.0040     0.292     0.104     0.097 -0.0048  0.8335  0.5526
              Bcc     0.0087    -0.627    -0.224    -0.209  0.8550 -0.2831  0.4345
 
              Baa    -0.0003    -0.038    -0.014    -0.013  0.7149 -0.3389  0.6116
    46 C(13)  Bbb    -0.0002    -0.022    -0.008    -0.007 -0.6239  0.0859  0.7768
              Bcc     0.0004     0.060     0.021     0.020  0.3158  0.9369  0.1500
 
              Baa    -0.0041    -0.557    -0.199    -0.186  0.8309 -0.2882  0.4760
    47 C(13)  Bbb     0.0009     0.125     0.045     0.042 -0.4520  0.1495  0.8794
              Bcc     0.0032     0.431     0.154     0.144  0.3246  0.9458  0.0061
 
              Baa    -0.0066    -0.881    -0.314    -0.294 -0.2974 -0.2060  0.9323
    48 C(13)  Bbb    -0.0036    -0.480    -0.171    -0.160  0.6458  0.6757  0.3554
              Bcc     0.0101     1.362     0.486     0.454 -0.7031  0.7078 -0.0679
 
              Baa    -0.0405    -1.563    -0.558    -0.521  0.9968  0.0390 -0.0704
    49 N(14)  Bbb    -0.0326    -1.257    -0.448    -0.419 -0.0463  0.9933 -0.1056
              Bcc     0.0731     2.820     1.006     0.941  0.0658  0.1085  0.9919
 
              Baa    -0.0029    -0.491    -0.175    -0.164 -0.1393 -0.0101  0.9902
    50 B(11)  Bbb     0.0014     0.234     0.083     0.078  0.8016  0.5860  0.1187
              Bcc     0.0015     0.258     0.092     0.086 -0.5814  0.8103 -0.0736
 
              Baa    -0.0050    -2.513    -0.897    -0.838 -0.0721  0.2282  0.9709
    51 F(19)  Bbb    -0.0044    -2.205    -0.787    -0.736  0.9930 -0.0746  0.0912
              Bcc     0.0094     4.718     1.684     1.574  0.0933  0.9707 -0.2213
 
              Baa    -0.0126    -6.314    -2.253    -2.106  0.9809  0.0456 -0.1890
    52 F(19)  Bbb    -0.0112    -5.622    -2.006    -1.875  0.1904 -0.4224  0.8862
              Bcc     0.0238    11.936     4.259     3.981  0.0394  0.9053  0.4230
 
              Baa    -0.0029    -0.394    -0.140    -0.131  0.0334  0.8890 -0.4566
    53 C(13)  Bbb    -0.0002    -0.029    -0.010    -0.010  0.0733  0.4534  0.8883
              Bcc     0.0031     0.423     0.151     0.141  0.9967 -0.0631 -0.0500
 
              Baa    -0.0009    -0.125    -0.045    -0.042  0.1622  0.6785  0.7164
    54 C(13)  Bbb     0.0001     0.017     0.006     0.006 -0.1888  0.7340 -0.6524
              Bcc     0.0008     0.108     0.038     0.036  0.9685  0.0294 -0.2472
 
              Baa    -0.0001    -0.067    -0.024    -0.022 -0.0929  0.0538  0.9942
    55 H(1)   Bbb    -0.0001    -0.060    -0.021    -0.020  0.0136  0.9985 -0.0527
              Bcc     0.0002     0.127     0.045     0.042  0.9956 -0.0086  0.0935
 
              Baa    -0.0002    -0.099    -0.035    -0.033 -0.1303  0.3056  0.9432
    56 H(1)   Bbb    -0.0002    -0.089    -0.032    -0.030 -0.0810  0.9449 -0.3173
              Bcc     0.0004     0.188     0.067     0.063  0.9882  0.1178  0.0984
 
              Baa    -0.0002    -0.100    -0.036    -0.034 -0.2444  0.1349  0.9602
    57 H(1)   Bbb    -0.0002    -0.083    -0.030    -0.028  0.0191  0.9908 -0.1343
              Bcc     0.0003     0.184     0.066     0.061  0.9695  0.0145  0.2447
 
              Baa    -0.0004    -0.214    -0.076    -0.071 -0.3325  0.1226  0.9351
    58 H(1)   Bbb    -0.0003    -0.171    -0.061    -0.057 -0.1211  0.9778 -0.1713
              Bcc     0.0007     0.385     0.137     0.129  0.9353  0.1702  0.3103
 
              Baa    -0.0014    -0.767    -0.274    -0.256 -0.2095  0.9777  0.0118
    59 H(1)   Bbb    -0.0012    -0.622    -0.222    -0.207 -0.3775 -0.0920  0.9214
              Bcc     0.0026     1.388     0.495     0.463  0.9020  0.1886  0.3884
 
              Baa    -0.0018    -0.940    -0.335    -0.313 -0.5770 -0.3674  0.7295
    60 H(1)   Bbb     0.0001     0.072     0.026     0.024  0.7522 -0.5869  0.2994
              Bcc     0.0016     0.868     0.310     0.290  0.3182  0.7215  0.6150
 
              Baa    -0.0006    -0.319    -0.114    -0.106  0.8098  0.2800 -0.5156
    61 H(1)   Bbb    -0.0003    -0.178    -0.063    -0.059  0.5218  0.0580  0.8511
              Bcc     0.0009     0.496     0.177     0.166 -0.2682  0.9583  0.0991
 
              Baa    -0.0003    -0.146    -0.052    -0.049  0.8234  0.4282 -0.3723
    62 H(1)   Bbb    -0.0002    -0.106    -0.038    -0.035  0.4919 -0.2115  0.8446
              Bcc     0.0005     0.252     0.090     0.084 -0.2829  0.8786  0.3848
 
              Baa    -0.0002    -0.118    -0.042    -0.039 -0.0423 -0.1485  0.9880
    63 H(1)   Bbb    -0.0002    -0.102    -0.037    -0.034  0.9699  0.2312  0.0762
              Bcc     0.0004     0.221     0.079     0.074 -0.2398  0.9615  0.1342
 
              Baa    -0.0003    -0.162    -0.058    -0.054 -0.4299 -0.1823  0.8843
    64 H(1)   Bbb    -0.0002    -0.088    -0.031    -0.029  0.9021 -0.0458  0.4291
              Bcc     0.0005     0.250     0.089     0.083 -0.0377  0.9822  0.1841
 
              Baa    -0.0006    -0.343    -0.122    -0.114  0.8003  0.3177 -0.5085
    65 H(1)   Bbb    -0.0002    -0.110    -0.039    -0.037  0.3730  0.4001  0.8371
              Bcc     0.0008     0.453     0.162     0.151 -0.4694  0.8597 -0.2017
 
              Baa    -0.0022    -1.198    -0.428    -0.400 -0.6880  0.0161  0.7255
    66 H(1)   Bbb    -0.0002    -0.122    -0.043    -0.041  0.2748  0.9311  0.2399
              Bcc     0.0025     1.320     0.471     0.440  0.6717 -0.3644  0.6450
 
              Baa    -0.0107    -5.734    -2.046    -1.913  0.9017 -0.4106  0.1352
    67 H(1)   Bbb    -0.0031    -1.635    -0.583    -0.545 -0.1538 -0.0124  0.9880
              Bcc     0.0138     7.368     2.629     2.458  0.4040  0.9117  0.0743
 
              Baa    -0.0035    -1.842    -0.657    -0.615  0.6476  0.1100  0.7540
    68 H(1)   Bbb    -0.0001    -0.057    -0.020    -0.019  0.0497  0.9813 -0.1859
              Bcc     0.0036     1.899     0.678     0.633  0.7604 -0.1579 -0.6300
 
              Baa    -0.0017    -0.894    -0.319    -0.298  0.5981  0.0020  0.8014
    69 H(1)   Bbb    -0.0006    -0.300    -0.107    -0.100  0.7998 -0.0654 -0.5967
              Bcc     0.0022     1.194     0.426     0.398  0.0512  0.9979 -0.0407
 
              Baa    -0.0017    -0.894    -0.319    -0.298  0.5993 -0.0138  0.8004
    70 H(1)   Bbb    -0.0006    -0.315    -0.112    -0.105  0.7957 -0.0992 -0.5975
              Bcc     0.0023     1.209     0.431     0.403  0.0877  0.9950 -0.0485
 
              Baa    -0.0035    -1.888    -0.674    -0.630  0.6519 -0.1495  0.7434
    71 H(1)   Bbb    -0.0000    -0.012    -0.004    -0.004 -0.0026  0.9799  0.1994
              Bcc     0.0036     1.901     0.678     0.634  0.7583  0.1319 -0.6384
 
              Baa    -0.0108    -5.763    -2.056    -1.922  0.9398  0.3358 -0.0634
    72 H(1)   Bbb    -0.0031    -1.643    -0.586    -0.548  0.0160  0.1418  0.9898
              Bcc     0.0139     7.406     2.643     2.471 -0.3414  0.9312 -0.1279
 
              Baa    -0.0014    -0.768    -0.274    -0.256 -0.3540  0.3409  0.8709
    73 H(1)   Bbb    -0.0011    -0.575    -0.205    -0.192 -0.1854  0.8871 -0.4226
              Bcc     0.0025     1.343     0.479     0.448  0.9167  0.3111  0.2508
 
              Baa    -0.0004    -0.202    -0.072    -0.067 -0.3177  0.4881  0.8129
    74 H(1)   Bbb    -0.0003    -0.174    -0.062    -0.058 -0.1390  0.8241 -0.5492
              Bcc     0.0007     0.376     0.134     0.125  0.9379  0.2875  0.1939
 
              Baa    -0.0004    -0.214    -0.076    -0.071  0.1854 -0.0818  0.9793
    75 H(1)   Bbb    -0.0003    -0.170    -0.061    -0.057  0.2567  0.9659  0.0320
              Bcc     0.0007     0.384     0.137     0.128  0.9485 -0.2455 -0.2000
 
              Baa    -0.0016    -0.845    -0.301    -0.282  0.1663  0.8994 -0.4043
    76 H(1)   Bbb    -0.0012    -0.630    -0.225    -0.210  0.3621  0.3257  0.8734
              Bcc     0.0028     1.475     0.526     0.492  0.9172 -0.2916 -0.2715
 
              Baa    -0.0020    -1.042    -0.372    -0.348  0.7375  0.0354  0.6744
    77 H(1)   Bbb    -0.0003    -0.164    -0.058    -0.055 -0.2741  0.9284  0.2510
              Bcc     0.0023     1.206     0.430     0.402 -0.6172 -0.3699  0.6944
 
              Baa    -0.0005    -0.289    -0.103    -0.097  0.8138 -0.3839  0.4362
    78 H(1)   Bbb    -0.0003    -0.137    -0.049    -0.046 -0.1972  0.5237  0.8287
              Bcc     0.0008     0.427     0.152     0.142  0.5466  0.7605 -0.3505
 
              Baa    -0.0003    -0.137    -0.049    -0.046  0.3937 -0.1749  0.9025
    79 H(1)   Bbb    -0.0002    -0.082    -0.029    -0.028  0.8941 -0.1551 -0.4201
              Bcc     0.0004     0.219     0.078     0.073  0.2134  0.9723  0.0953
 
              Baa    -0.0002    -0.100    -0.036    -0.033  0.1229 -0.0890  0.9884
    80 H(1)   Bbb    -0.0002    -0.084    -0.030    -0.028  0.9233 -0.3550 -0.1468
              Bcc     0.0003     0.184     0.066     0.061  0.3640  0.9306  0.0385
 
              Baa    -0.0002    -0.119    -0.043    -0.040  0.7587 -0.4909  0.4283
    81 H(1)   Bbb    -0.0002    -0.098    -0.035    -0.033 -0.4987 -0.0147  0.8666
              Bcc     0.0004     0.217     0.078     0.072  0.4191  0.8711  0.2560
 
              Baa    -0.0005    -0.258    -0.092    -0.086  0.7372 -0.3352  0.5866
    82 H(1)   Bbb    -0.0003    -0.186    -0.066    -0.062 -0.5784  0.1357  0.8044
              Bcc     0.0008     0.445     0.159     0.148  0.3492  0.9323  0.0938
 
              Baa    -0.0015    -0.826    -0.295    -0.275  0.5249 -0.4191  0.7408
    83 H(1)   Bbb    -0.0001    -0.070    -0.025    -0.023  0.8492  0.3163 -0.4228
              Bcc     0.0017     0.895     0.320     0.299 -0.0571  0.8511  0.5219
 
              Baa    -0.0016    -0.829    -0.296    -0.276  0.3872  0.2459  0.8886
    84 H(1)   Bbb    -0.0011    -0.584    -0.208    -0.195  0.1868  0.9229 -0.3367
              Bcc     0.0026     1.413     0.504     0.471  0.9029 -0.2963 -0.3114
 
              Baa    -0.0004    -0.213    -0.076    -0.071  0.2811  0.3674  0.8866
    85 H(1)   Bbb    -0.0003    -0.167    -0.060    -0.056  0.1652  0.8915 -0.4218
              Bcc     0.0007     0.380     0.136     0.127  0.9454 -0.2650 -0.1899
 

 ---------------------------------------------------------------------------------

 No NMR shielding tensors so no spin-rotation constants.
 Leave Link  601 at Thu Nov  6 19:08:35 2025, MaxMem= 30870077440 cpu:             283.7 elap:               5.3
 (Enter /public/software/gauss/g16/l9999.exe)
 1\1\GINC-CU015\SP\UM062X\def2TZVPP\C44H31B1F2N4O3(1-,2)\BAIDING\06-Nov
 -2025\0\\#p M062X/DEF2TZVPP scrf=(solvent=water) em=GD3\\Energy calcul
 ation for M100033923_reduced\\-1,2\C,0,9.6882,1.640373,1.060995\O,0,8.
 998985,0.710222,0.2223\C,0,7.624847,0.749714,0.215561\C,0,6.852535,1.6
 43103,0.964844\C,0,5.45895,1.584588,0.881494\C,0,4.79923,0.654477,0.06
 2563\C,0,3.325058,0.654074,-0.029026\C,0,2.452389,-0.449461,-0.128244\
 C,0,2.808694,-1.882086,-0.073353\C,0,2.410505,-2.79963,-1.058062\C,0,2
 .792789,-4.141876,-1.008518\C,0,3.598064,-4.594578,0.042584\O,0,4.0333
 72,-5.888596,0.188621\C,0,3.634325,-6.844055,-0.797833\C,0,4.008436,-3
 .694643,1.036941\C,0,3.618652,-2.36312,0.975422\N,0,1.154402,0.020677,
 -0.232072\C,0,1.182405,1.412458,-0.201332\C,0,2.522848,1.812512,-0.066
 909\C,0,-0.018118,2.187361,-0.195784\C,0,0.051467,3.652651,-0.21977\C,
 0,0.933701,4.324407,-1.100758\C,0,1.010601,5.707574,-1.13894\C,0,0.202
 162,6.481369,-0.283249\C,0,0.277632,7.904191,-0.315277\N,0,0.339761,9.
 070475,-0.341459\C,0,-0.679544,5.836432,0.605568\C,0,-0.750221,4.45214
 2,0.63047\C,0,-1.277745,1.512859,-0.114078\C,0,-2.586295,2.010856,-0.0
 65944\C,0,-3.470509,0.908883,0.009216\C,0,-4.934608,1.016638,0.050786\
 C,0,-5.781163,0.059657,-0.549084\C,0,-7.161136,0.202874,-0.527023\C,0,
 -7.74178,1.323326,0.095491\C,0,-9.160509,1.475927,0.118892\N,0,-10.321
 171,1.600635,0.137891\C,0,-6.915901,2.294316,0.690032\C,0,-5.537598,2.
 135846,0.664432\C,0,-2.674267,-0.254988,-0.00407\C,0,-3.126218,-1.6555
 19,0.158611\C,0,-3.869786,-2.014639,1.300236\C,0,-4.351627,-3.305946,1
 .472334\C,0,-4.104799,-4.28369,0.497752\O,0,-4.619593,-5.529276,0.7556
 79\C,0,-4.387488,-6.562697,-0.205596\C,0,-3.370384,-3.949982,-0.64601\
 C,0,-2.892416,-2.647434,-0.805154\N,0,-1.348653,0.119754,-0.082622\B,0
 ,-0.138679,-0.823715,-0.312087\F,0,-0.123394,-1.842091,0.649107\F,0,-0
 .246894,-1.401912,-1.605594\C,0,5.6025,-0.225831,-0.69073\C,0,6.988958
 ,-0.184519,-0.615199\H,0,10.750974,1.43731,0.921979\H,0,9.475576,2.675
 182,0.77013\H,0,9.426403,1.497938,2.115392\H,0,7.316484,2.375378,1.614
 638\H,0,4.872122,2.275273,1.480111\H,0,1.780761,-2.464007,-1.873139\H,
 0,2.46435,-4.815876,-1.790497\H,0,4.008361,-6.572726,-1.791205\H,0,4.0
 78269,-7.792079,-0.491165\H,0,2.544398,-6.948444,-0.83486\H,0,4.625886
 ,-4.057742,1.852699\H,0,3.937696,-1.682157,1.757857\H,0,2.879178,2.830
 3,-0.012491\H,0,1.544369,3.745226,-1.783726\H,0,1.682267,6.198752,-1.8
 35149\H,0,-1.291264,6.426603,1.279837\H,0,-1.411087,3.974821,1.344123\
 H,0,-2.875067,3.048705,-0.130227\H,0,-5.34997,-0.795416,-1.055564\H,0,
 -7.795724,-0.539648,-0.99917\H,0,-7.360094,3.158637,1.172141\H,0,-4.91
 1468,2.883099,1.140376\H,0,-4.063988,-1.26995,2.065823\H,0,-4.917148,-
 3.576947,2.358422\H,0,-3.316645,-6.755108,-0.334073\H,0,-4.869967,-7.4
 55295,0.194723\H,0,-4.832286,-6.313337,-1.175212\H,0,-3.169544,-4.6859
 83,-1.415067\H,0,-2.318046,-2.403163,-1.690359\H,0,5.133306,-0.943568,
 -1.355263\H,0,7.598389,-0.864255,-1.202904\\Version=ES64L-G16RevA.03\S
 tate=2-A\HF=-2364.8740859\S2=0.770476\S2-1=0.\S2A=0.750359\RMSD=3.372e
 -09\Dipole=3.2125425,-3.4391185,-0.0799511\Quadrupole=-43.9384766,-2.2
 385728,46.1770495,21.1928427,7.1096174,24.3672424\PG=C01 [X(C44H31B1F2
 N4O3)]\\@


 BE LIKE A POSTAGE STAMP.  STICK TO ONE THING UNTIL
 YOU GET THERE -- JOSH BILLINGS
 Job cpu time:       1 days 20 hours 14 minutes 10.3 seconds.
 Elapsed time:       0 days  0 hours 42 minutes  2.7 seconds.
 File lengths (MBytes):  RWF=   4735 Int=      0 D2E=      0 Chk=    309 Scr=      1
 Normal termination of Gaussian 16 at Thu Nov  6 19:08:37 2025.
