 Entering Gaussian System, Link 0=g16
 Input=M100033051_reduced_sp.gjf
 Output=M100033051_reduced_sp.log
 Initial command:
 /public/software/gauss/g16/l1.exe "/public/home/baiding/1101_v2_sp/tmp_M100033051_reduced_sp_1568608/Gau-4140988.inp" -scrdir="/public/home/baiding/1101_v2_sp/tmp_M100033051_reduced_sp_1568608/"
 Entering Link 1 = /public/software/gauss/g16/l1.exe PID=   4140989.
  
 Copyright (c) 1988,1990,1992,1993,1995,1998,2003,2009,2016,
            Gaussian, Inc.  All Rights Reserved.
  
 This is part of the Gaussian(R) 16 program.  It is based on
 the Gaussian(R) 09 system (copyright 2009, Gaussian, Inc.),
 the Gaussian(R) 03 system (copyright 2003, Gaussian, Inc.),
 the Gaussian(R) 98 system (copyright 1998, Gaussian, Inc.),
 the Gaussian(R) 94 system (copyright 1995, Gaussian, Inc.),
 the Gaussian 92(TM) system (copyright 1992, Gaussian, Inc.),
 the Gaussian 90(TM) system (copyright 1990, Gaussian, Inc.),
 the Gaussian 88(TM) system (copyright 1988, Gaussian, Inc.),
 the Gaussian 86(TM) system (copyright 1986, Carnegie Mellon
 University), and the Gaussian 82(TM) system (copyright 1983,
 Carnegie Mellon University). Gaussian is a federally registered
 trademark of Gaussian, Inc.
  
 This software contains proprietary and confidential information,
 including trade secrets, belonging to Gaussian, Inc.
  
 This software is provided under written license and may be
 used, copied, transmitted, or stored only in accord with that
 written license.
  
 The following legend is applicable only to US Government
 contracts under FAR:
  
                    RESTRICTED RIGHTS LEGEND
  
 Use, reproduction and disclosure by the US Government is
 subject to restrictions as set forth in subparagraphs (a)
 and (c) of the Commercial Computer Software - Restricted
 Rights clause in FAR 52.227-19.
  
 Gaussian, Inc.
 340 Quinnipiac St., Bldg. 40, Wallingford CT 06492
  
  
 ---------------------------------------------------------------
 Warning -- This program may not be used in any manner that
 competes with the business of Gaussian, Inc. or will provide
 assistance to any competitor of Gaussian, Inc.  The licensee
 of this program is prohibited from giving any competitor of
 Gaussian, Inc. access to this program.  By using this program,
 the user acknowledges that Gaussian, Inc. is engaged in the
 business of creating and licensing software in the field of
 computational chemistry and represents and warrants to the
 licensee that it is not a competitor of Gaussian, Inc. and that
 it will not use this program in any manner prohibited above.
 ---------------------------------------------------------------
  

 Cite this work as:
 Gaussian 16, Revision A.03,
 M. J. Frisch, G. W. Trucks, H. B. Schlegel, G. E. Scuseria, 
 M. A. Robb, J. R. Cheeseman, G. Scalmani, V. Barone, 
 G. A. Petersson, H. Nakatsuji, X. Li, M. Caricato, A. V. Marenich, 
 J. Bloino, B. G. Janesko, R. Gomperts, B. Mennucci, H. P. Hratchian, 
 J. V. Ortiz, A. F. Izmaylov, J. L. Sonnenberg, D. Williams-Young, 
 F. Ding, F. Lipparini, F. Egidi, J. Goings, B. Peng, A. Petrone, 
 T. Henderson, D. Ranasinghe, V. G. Zakrzewski, J. Gao, N. Rega, 
 G. Zheng, W. Liang, M. Hada, M. Ehara, K. Toyota, R. Fukuda, 
 J. Hasegawa, M. Ishida, T. Nakajima, Y. Honda, O. Kitao, H. Nakai, 
 T. Vreven, K. Throssell, J. A. Montgomery, Jr., J. E. Peralta, 
 F. Ogliaro, M. J. Bearpark, J. J. Heyd, E. N. Brothers, K. N. Kudin, 
 V. N. Staroverov, T. A. Keith, R. Kobayashi, J. Normand, 
 K. Raghavachari, A. P. Rendell, J. C. Burant, S. S. Iyengar, 
 J. Tomasi, M. Cossi, J. M. Millam, M. Klene, C. Adamo, R. Cammi, 
 J. W. Ochterski, R. L. Martin, K. Morokuma, O. Farkas, 
 J. B. Foresman, and D. J. Fox, Gaussian, Inc., Wallingford CT, 2016.
 
 ******************************************
 Gaussian 16:  ES64L-G16RevA.03 25-Dec-2016
                 6-Nov-2025 
 ******************************************
 %nprocshared=64
 Will use up to   64 processors via shared memory.
 %mem=230GB
 %chk=M100033051_reduced_sp.chk
 ----------------------------------------------
 #p M062X/DEF2TZVPP scrf=(solvent=water) em=GD3
 ----------------------------------------------
 1/38=1,172=1/1;
 2/12=2,17=6,18=5,40=1/2;
 3/5=44,7=202,11=2,25=1,30=1,70=2201,72=1,74=-55,124=31/1,2,3;
 4//1;
 5/5=2,38=5,53=1/2;
 6/7=2,8=2,9=2,10=2,28=1/1;
 99/5=1,9=1/99;
 Leave Link    1 at Thu Nov  6 09:15:46 2025, MaxMem= 30870077440 cpu:              10.7 elap:               0.2
 (Enter /public/software/gauss/g16/l101.exe)
 -----------------------------------------
 Energy calculation for M100033051_reduced
 -----------------------------------------
 Symbolic Z-matrix:
 Charge = -1 Multiplicity = 2
 C                    -8.73155  -2.61627  -0.66399 
 C                    -7.73162  -2.13302  -1.72834 
 C                    -6.43659  -1.63189  -1.1462 
 C                    -6.08656  -0.30242  -0.90694 
 C                    -6.96955   0.88351  -1.17714 
 C                    -4.75796  -0.30514  -0.3513 
 C                    -3.92167   0.76523   0.07571 
 C                    -2.65503   0.4802    0.65259 
 C                    -1.60415   1.33258   1.11102 
 C                    -1.55195   2.83465   1.11948 
 C                    -0.56636   0.49964   1.57449 
 C                     0.68306   0.95773   2.28047 
 C                     0.41844   1.48357   3.70241 
 C                    -0.97091  -0.83811   1.37665 
 C                    -0.34193  -2.09138   1.77334 
 C                     0.93621  -2.53125   1.65027 
 C                     2.09261  -2.0025    0.91786 
 C                     2.01315  -1.03791  -0.10879 
 C                     3.14403  -0.62489  -0.80417 
 C                     4.40432  -1.15886  -0.4952 
 O                     5.49196  -0.76935  -1.23131 
 Si                    6.91759   0.09763  -0.82553 
 C                     6.8978    1.64695  -1.94696 
 C                     7.85677   2.76058  -1.47928 
 C                     5.49033   2.22361  -2.18901 
 C                     8.30568  -1.08427  -1.38668 
 C                     9.68153  -0.42559  -1.59931 
 C                     8.42673  -2.3347   -0.49668 
 C                     6.89829   0.44095   1.05151 
 C                     5.80487   1.43827   1.48291 
 C                     8.26866   0.86363   1.61799 
 C                     4.50465  -2.13507   0.50459 
 C                     3.36443  -2.54537   1.19101 
 N                    -2.24407  -0.83583   0.83835 
 B                    -3.03447  -2.0851    0.42728 
 F                    -2.27663  -2.88786  -0.45545 
 F                    -3.34249  -2.87457   1.56379 
 N                    -4.33331  -1.61381  -0.25499 
 C                    -5.34359  -2.44565  -0.73484 
 C                    -5.18996  -3.86033  -0.80833 
 O                    -6.07526  -4.67344  -1.17154 
 C                    -4.36534   2.18171  -0.08528 
 C                    -4.25887   2.83709  -1.32284 
 C                    -4.66042   4.16204  -1.48026 
 C                    -5.18581   4.86079  -0.38786 
 O                    -5.57022   6.16609  -0.5923 
 C                    -5.30368   4.22878   0.85436 
 C                    -4.89257   2.90318   0.99615 
 H                    -9.66026  -2.9604   -1.13211 
 H                    -8.31514  -3.44877  -0.08888 
 H                    -8.98325  -1.81265   0.03608 
 H                    -7.52329  -2.95858  -2.41562 
 H                    -8.19672  -1.33939  -2.32185 
 H                    -7.97984   0.55573  -1.43422 
 H                    -7.04942   1.54125  -0.3069 
 H                    -6.6037    1.50077  -2.00507 
 H                    -1.87997   3.26406   0.16898 
 H                    -2.18451   3.27639   1.89875 
 H                    -0.52865   3.17564   1.29996 
 H                     1.39518   0.13266   2.34078 
 H                     1.17763   1.74368   1.69484 
 H                    -0.26284   2.34028   3.69736 
 H                    -0.03121   0.7044    4.32742 
 H                     1.35241   1.80074   4.1796 
 H                    -1.03092  -2.79126   2.24349 
 H                     1.14297  -3.48192   2.14048 
 H                     1.05101  -0.6137   -0.37292 
 H                     3.063     0.11197  -1.59708 
 H                     7.26995   1.2809   -2.91667 
 H                     8.87923   2.40317  -1.32215 
 H                     7.90348   3.56335  -2.22654 
 H                     7.51628   3.21314  -0.54162 
 H                     4.8133    1.48464  -2.62697 
 H                     5.03333   2.58458  -1.26071 
 H                     5.53928   3.07655  -2.87853 
 H                     7.95376  -1.41941  -2.37552 
 H                     10.39777  -1.15665  -1.99644 
 H                     9.63667   0.40465  -2.31122 
 H                     10.10115  -0.04015  -0.66359 
 H                     7.47465  -2.86769  -0.40386 
 H                     9.15617  -3.04027  -0.91516 
 H                     8.76631  -2.08032   0.514 
 H                     6.65126  -0.53068   1.50365 
 H                     4.80731   1.13901   1.1455 
 H                     5.7698    1.51759   2.57733 
 H                     6.00033   2.44276   1.09222 
 H                     9.04769   0.12182   1.4175 
 H                     8.60572   1.82057   1.20585 
 H                     8.20635   0.986     2.70719 
 H                     5.46963  -2.57625   0.73162 
 H                     3.45716  -3.31065   1.95741 
 H                    -4.19549  -4.24555  -0.53152 
 H                    -3.85087   2.3023   -2.1756 
 H                    -4.57149   4.66319  -2.43907 
 H                    -5.9147    6.52883   0.23807 
 H                    -5.71445   4.77414   1.70024 
 H                    -4.9871    2.42067   1.96459 
 
 ITRead=  0  0  0  0  0  0  0  0  0  0  0  0  0  0  0  0  0  0  0  0
 ITRead=  0  0  0  0  0  0  0  0  0  0  0  0  0  0  0  0  0  0  0  0
 ITRead=  0  0  0  0  0  0  0  0  0  0  0  0  0  0  0  0  0  0  0  0
 ITRead=  0  0  0  0  0  0  0  0  0  0  0  0  0  0  0  0  0  0  0  0
 ITRead=  0  0  0  0  0  0  0  0  0  0  0  0  0  0  0  0  0
 MicOpt= -1 -1 -1 -1 -1 -1 -1 -1 -1 -1 -1 -1 -1 -1 -1 -1 -1 -1 -1 -1
 MicOpt= -1 -1 -1 -1 -1 -1 -1 -1 -1 -1 -1 -1 -1 -1 -1 -1 -1 -1 -1 -1
 MicOpt= -1 -1 -1 -1 -1 -1 -1 -1 -1 -1 -1 -1 -1 -1 -1 -1 -1 -1 -1 -1
 MicOpt= -1 -1 -1 -1 -1 -1 -1 -1 -1 -1 -1 -1 -1 -1 -1 -1 -1 -1 -1 -1
 MicOpt= -1 -1 -1 -1 -1 -1 -1 -1 -1 -1 -1 -1 -1 -1 -1 -1 -1
 NAtoms=     97 NQM=       97 NQMF=       0 NMMI=      0 NMMIF=      0
                NMic=       0 NMicF=      0.
                    Isotopes and Nuclear Properties:
 (Nuclear quadrupole moments (NQMom) in fm**2, nuclear magnetic moments (NMagM)
  in nuclear magnetons)

  Atom         1           2           3           4           5           6           7           8           9          10
 IAtWgt=          12          12          12          12          12          12          12          12          12          12
 AtmWgt=  12.0000000  12.0000000  12.0000000  12.0000000  12.0000000  12.0000000  12.0000000  12.0000000  12.0000000  12.0000000
 NucSpn=           0           0           0           0           0           0           0           0           0           0
 AtZEff=  -0.0000000  -0.0000000  -0.0000000  -0.0000000  -0.0000000  -0.0000000  -0.0000000  -0.0000000  -0.0000000  -0.0000000
 NQMom=    0.0000000   0.0000000   0.0000000   0.0000000   0.0000000   0.0000000   0.0000000   0.0000000   0.0000000   0.0000000
 NMagM=    0.0000000   0.0000000   0.0000000   0.0000000   0.0000000   0.0000000   0.0000000   0.0000000   0.0000000   0.0000000
 AtZNuc=   6.0000000   6.0000000   6.0000000   6.0000000   6.0000000   6.0000000   6.0000000   6.0000000   6.0000000   6.0000000

  Atom        11          12          13          14          15          16          17          18          19          20
 IAtWgt=          12          12          12          12          12          12          12          12          12          12
 AtmWgt=  12.0000000  12.0000000  12.0000000  12.0000000  12.0000000  12.0000000  12.0000000  12.0000000  12.0000000  12.0000000
 NucSpn=           0           0           0           0           0           0           0           0           0           0
 AtZEff=  -0.0000000  -0.0000000  -0.0000000  -0.0000000  -0.0000000  -0.0000000  -0.0000000  -0.0000000  -0.0000000  -0.0000000
 NQMom=    0.0000000   0.0000000   0.0000000   0.0000000   0.0000000   0.0000000   0.0000000   0.0000000   0.0000000   0.0000000
 NMagM=    0.0000000   0.0000000   0.0000000   0.0000000   0.0000000   0.0000000   0.0000000   0.0000000   0.0000000   0.0000000
 AtZNuc=   6.0000000   6.0000000   6.0000000   6.0000000   6.0000000   6.0000000   6.0000000   6.0000000   6.0000000   6.0000000

  Atom        21          22          23          24          25          26          27          28          29          30
 IAtWgt=          16          28          12          12          12          12          12          12          12          12
 AtmWgt=  15.9949146  27.9769284  12.0000000  12.0000000  12.0000000  12.0000000  12.0000000  12.0000000  12.0000000  12.0000000
 NucSpn=           0           0           0           0           0           0           0           0           0           0
 AtZEff=  -0.0000000  -0.0000000  -0.0000000  -0.0000000  -0.0000000  -0.0000000  -0.0000000  -0.0000000  -0.0000000  -0.0000000
 NQMom=    0.0000000   0.0000000   0.0000000   0.0000000   0.0000000   0.0000000   0.0000000   0.0000000   0.0000000   0.0000000
 NMagM=    0.0000000   0.0000000   0.0000000   0.0000000   0.0000000   0.0000000   0.0000000   0.0000000   0.0000000   0.0000000
 AtZNuc=   8.0000000  14.0000000   6.0000000   6.0000000   6.0000000   6.0000000   6.0000000   6.0000000   6.0000000   6.0000000

  Atom        31          32          33          34          35          36          37          38          39          40
 IAtWgt=          12          12          12          14          11          19          19          14          12          12
 AtmWgt=  12.0000000  12.0000000  12.0000000  14.0030740  11.0093053  18.9984033  18.9984033  14.0030740  12.0000000  12.0000000
 NucSpn=           0           0           0           2           3           1           1           2           0           0
 AtZEff=  -0.0000000  -0.0000000  -0.0000000  -0.0000000  -0.0000000  -0.0000000  -0.0000000  -0.0000000  -0.0000000  -0.0000000
 NQMom=    0.0000000   0.0000000   0.0000000   2.0440000   4.0590000   0.0000000   0.0000000   2.0440000   0.0000000   0.0000000
 NMagM=    0.0000000   0.0000000   0.0000000   0.4037610   2.6886370   2.6288670   2.6288670   0.4037610   0.0000000   0.0000000
 AtZNuc=   6.0000000   6.0000000   6.0000000   7.0000000   5.0000000   9.0000000   9.0000000   7.0000000   6.0000000   6.0000000

  Atom        41          42          43          44          45          46          47          48          49          50
 IAtWgt=          16          12          12          12          12          16          12          12           1           1
 AtmWgt=  15.9949146  12.0000000  12.0000000  12.0000000  12.0000000  15.9949146  12.0000000  12.0000000   1.0078250   1.0078250
 NucSpn=           0           0           0           0           0           0           0           0           1           1
 AtZEff=  -0.0000000  -0.0000000  -0.0000000  -0.0000000  -0.0000000  -0.0000000  -0.0000000  -0.0000000  -0.0000000  -0.0000000
 NQMom=    0.0000000   0.0000000   0.0000000   0.0000000   0.0000000   0.0000000   0.0000000   0.0000000   0.0000000   0.0000000
 NMagM=    0.0000000   0.0000000   0.0000000   0.0000000   0.0000000   0.0000000   0.0000000   0.0000000   2.7928460   2.7928460
 AtZNuc=   8.0000000   6.0000000   6.0000000   6.0000000   6.0000000   8.0000000   6.0000000   6.0000000   1.0000000   1.0000000

  Atom        51          52          53          54          55          56          57          58          59          60
 IAtWgt=           1           1           1           1           1           1           1           1           1           1
 AtmWgt=   1.0078250   1.0078250   1.0078250   1.0078250   1.0078250   1.0078250   1.0078250   1.0078250   1.0078250   1.0078250
 NucSpn=           1           1           1           1           1           1           1           1           1           1
 AtZEff=  -0.0000000  -0.0000000  -0.0000000  -0.0000000  -0.0000000  -0.0000000  -0.0000000  -0.0000000  -0.0000000  -0.0000000
 NQMom=    0.0000000   0.0000000   0.0000000   0.0000000   0.0000000   0.0000000   0.0000000   0.0000000   0.0000000   0.0000000
 NMagM=    2.7928460   2.7928460   2.7928460   2.7928460   2.7928460   2.7928460   2.7928460   2.7928460   2.7928460   2.7928460
 AtZNuc=   1.0000000   1.0000000   1.0000000   1.0000000   1.0000000   1.0000000   1.0000000   1.0000000   1.0000000   1.0000000

  Atom        61          62          63          64          65          66          67          68          69          70
 IAtWgt=           1           1           1           1           1           1           1           1           1           1
 AtmWgt=   1.0078250   1.0078250   1.0078250   1.0078250   1.0078250   1.0078250   1.0078250   1.0078250   1.0078250   1.0078250
 NucSpn=           1           1           1           1           1           1           1           1           1           1
 AtZEff=  -0.0000000  -0.0000000  -0.0000000  -0.0000000  -0.0000000  -0.0000000  -0.0000000  -0.0000000  -0.0000000  -0.0000000
 NQMom=    0.0000000   0.0000000   0.0000000   0.0000000   0.0000000   0.0000000   0.0000000   0.0000000   0.0000000   0.0000000
 NMagM=    2.7928460   2.7928460   2.7928460   2.7928460   2.7928460   2.7928460   2.7928460   2.7928460   2.7928460   2.7928460
 AtZNuc=   1.0000000   1.0000000   1.0000000   1.0000000   1.0000000   1.0000000   1.0000000   1.0000000   1.0000000   1.0000000

  Atom        71          72          73          74          75          76          77          78          79          80
 IAtWgt=           1           1           1           1           1           1           1           1           1           1
 AtmWgt=   1.0078250   1.0078250   1.0078250   1.0078250   1.0078250   1.0078250   1.0078250   1.0078250   1.0078250   1.0078250
 NucSpn=           1           1           1           1           1           1           1           1           1           1
 AtZEff=  -0.0000000  -0.0000000  -0.0000000  -0.0000000  -0.0000000  -0.0000000  -0.0000000  -0.0000000  -0.0000000  -0.0000000
 NQMom=    0.0000000   0.0000000   0.0000000   0.0000000   0.0000000   0.0000000   0.0000000   0.0000000   0.0000000   0.0000000
 NMagM=    2.7928460   2.7928460   2.7928460   2.7928460   2.7928460   2.7928460   2.7928460   2.7928460   2.7928460   2.7928460
 AtZNuc=   1.0000000   1.0000000   1.0000000   1.0000000   1.0000000   1.0000000   1.0000000   1.0000000   1.0000000   1.0000000

  Atom        81          82          83          84          85          86          87          88          89          90
 IAtWgt=           1           1           1           1           1           1           1           1           1           1
 AtmWgt=   1.0078250   1.0078250   1.0078250   1.0078250   1.0078250   1.0078250   1.0078250   1.0078250   1.0078250   1.0078250
 NucSpn=           1           1           1           1           1           1           1           1           1           1
 AtZEff=  -0.0000000  -0.0000000  -0.0000000  -0.0000000  -0.0000000  -0.0000000  -0.0000000  -0.0000000  -0.0000000  -0.0000000
 NQMom=    0.0000000   0.0000000   0.0000000   0.0000000   0.0000000   0.0000000   0.0000000   0.0000000   0.0000000   0.0000000
 NMagM=    2.7928460   2.7928460   2.7928460   2.7928460   2.7928460   2.7928460   2.7928460   2.7928460   2.7928460   2.7928460
 AtZNuc=   1.0000000   1.0000000   1.0000000   1.0000000   1.0000000   1.0000000   1.0000000   1.0000000   1.0000000   1.0000000

  Atom        91          92          93          94          95          96          97
 IAtWgt=           1           1           1           1           1           1           1
 AtmWgt=   1.0078250   1.0078250   1.0078250   1.0078250   1.0078250   1.0078250   1.0078250
 NucSpn=           1           1           1           1           1           1           1
 AtZEff=  -0.0000000  -0.0000000  -0.0000000  -0.0000000  -0.0000000  -0.0000000  -0.0000000
 NQMom=    0.0000000   0.0000000   0.0000000   0.0000000   0.0000000   0.0000000   0.0000000
 NMagM=    2.7928460   2.7928460   2.7928460   2.7928460   2.7928460   2.7928460   2.7928460
 AtZNuc=   1.0000000   1.0000000   1.0000000   1.0000000   1.0000000   1.0000000   1.0000000
 Leave Link  101 at Thu Nov  6 09:15:46 2025, MaxMem= 30870077440 cpu:               5.5 elap:               0.1
 (Enter /public/software/gauss/g16/l202.exe)
 Stoichiometry    C39H49BF2N2O3Si(1-,2)
 Framework group  C1[X(C39H49BF2N2O3Si)]
 Deg. of freedom   285
 Full point group                 C1      NOp   1
 Largest Abelian subgroup         C1      NOp   1
 Largest concise Abelian subgroup C1      NOp   1
                         Standard orientation:                         
 ---------------------------------------------------------------------
 Center     Atomic      Atomic             Coordinates (Angstroms)
 Number     Number       Type             X           Y           Z
 ---------------------------------------------------------------------
      1          6           0       -8.731552   -2.616266   -0.663994
      2          6           0       -7.731615   -2.133025   -1.728336
      3          6           0       -6.436588   -1.631894   -1.146198
      4          6           0       -6.086563   -0.302419   -0.906941
      5          6           0       -6.969545    0.883509   -1.177136
      6          6           0       -4.757958   -0.305140   -0.351297
      7          6           0       -3.921674    0.765234    0.075707
      8          6           0       -2.655025    0.480196    0.652591
      9          6           0       -1.604152    1.332583    1.111023
     10          6           0       -1.551952    2.834646    1.119482
     11          6           0       -0.566362    0.499635    1.574487
     12          6           0        0.683064    0.957734    2.280474
     13          6           0        0.418437    1.483570    3.702409
     14          6           0       -0.970909   -0.838113    1.376651
     15          6           0       -0.341932   -2.091384    1.773339
     16          6           0        0.936210   -2.531247    1.650268
     17          6           0        2.092611   -2.002500    0.917861
     18          6           0        2.013152   -1.037911   -0.108790
     19          6           0        3.144033   -0.624885   -0.804172
     20          6           0        4.404318   -1.158862   -0.495199
     21          8           0        5.491956   -0.769349   -1.231313
     22         14           0        6.917594    0.097634   -0.825526
     23          6           0        6.897800    1.646945   -1.946964
     24          6           0        7.856767    2.760580   -1.479283
     25          6           0        5.490335    2.223614   -2.189012
     26          6           0        8.305677   -1.084272   -1.386682
     27          6           0        9.681531   -0.425593   -1.599305
     28          6           0        8.426725   -2.334702   -0.496679
     29          6           0        6.898293    0.440952    1.051514
     30          6           0        5.804874    1.438267    1.482905
     31          6           0        8.268657    0.863625    1.617993
     32          6           0        4.504647   -2.135067    0.504591
     33          6           0        3.364431   -2.545365    1.191010
     34          7           0       -2.244074   -0.835829    0.838349
     35          5           0       -3.034469   -2.085096    0.427276
     36          9           0       -2.276632   -2.887858   -0.455452
     37          9           0       -3.342487   -2.874567    1.563788
     38          7           0       -4.333309   -1.613808   -0.254989
     39          6           0       -5.343590   -2.445648   -0.734841
     40          6           0       -5.189955   -3.860333   -0.808327
     41          8           0       -6.075257   -4.673435   -1.171539
     42          6           0       -4.365344    2.181713   -0.085276
     43          6           0       -4.258873    2.837092   -1.322837
     44          6           0       -4.660417    4.162042   -1.480260
     45          6           0       -5.185815    4.860789   -0.387856
     46          8           0       -5.570218    6.166087   -0.592300
     47          6           0       -5.303679    4.228781    0.854359
     48          6           0       -4.892573    2.903179    0.996152
     49          1           0       -9.660256   -2.960401   -1.132112
     50          1           0       -8.315142   -3.448769   -0.088882
     51          1           0       -8.983251   -1.812652    0.036084
     52          1           0       -7.523291   -2.958577   -2.415622
     53          1           0       -8.196723   -1.339392   -2.321853
     54          1           0       -7.979843    0.555725   -1.434219
     55          1           0       -7.049417    1.541249   -0.306904
     56          1           0       -6.603704    1.500768   -2.005067
     57          1           0       -1.879965    3.264057    0.168984
     58          1           0       -2.184512    3.276387    1.898748
     59          1           0       -0.528647    3.175644    1.299956
     60          1           0        1.395180    0.132659    2.340780
     61          1           0        1.177633    1.743675    1.694835
     62          1           0       -0.262838    2.340277    3.697358
     63          1           0       -0.031209    0.704402    4.327418
     64          1           0        1.352407    1.800744    4.179600
     65          1           0       -1.030919   -2.791256    2.243489
     66          1           0        1.142972   -3.481915    2.140477
     67          1           0        1.051010   -0.613700   -0.372917
     68          1           0        3.063003    0.111967   -1.597084
     69          1           0        7.269953    1.280904   -2.916665
     70          1           0        8.879233    2.403168   -1.322151
     71          1           0        7.903483    3.563352   -2.226539
     72          1           0        7.516285    3.213137   -0.541621
     73          1           0        4.813302    1.484638   -2.626970
     74          1           0        5.033330    2.584583   -1.260711
     75          1           0        5.539282    3.076546   -2.878532
     76          1           0        7.953762   -1.419411   -2.375517
     77          1           0       10.397773   -1.156653   -1.996435
     78          1           0        9.636671    0.404646   -2.311216
     79          1           0       10.101146   -0.040152   -0.663591
     80          1           0        7.474652   -2.867692   -0.403859
     81          1           0        9.156168   -3.040274   -0.915159
     82          1           0        8.766312   -2.080322    0.514002
     83          1           0        6.651260   -0.530682    1.503651
     84          1           0        4.807310    1.139011    1.145503
     85          1           0        5.769803    1.517591    2.577331
     86          1           0        6.000329    2.442763    1.092217
     87          1           0        9.047692    0.121823    1.417503
     88          1           0        8.605716    1.820565    1.205845
     89          1           0        8.206347    0.985997    2.707190
     90          1           0        5.469627   -2.576254    0.731615
     91          1           0        3.457164   -3.310648    1.957411
     92          1           0       -4.195493   -4.245549   -0.531515
     93          1           0       -3.850868    2.302299   -2.175597
     94          1           0       -4.571487    4.663187   -2.439074
     95          1           0       -5.914701    6.528832    0.238072
     96          1           0       -5.714450    4.774136    1.700241
     97          1           0       -4.987104    2.420665    1.964592
 ---------------------------------------------------------------------
 Rotational constants (GHZ):           0.0992605           0.0251901           0.0221623
 Leave Link  202 at Thu Nov  6 09:15:46 2025, MaxMem= 30870077440 cpu:               0.6 elap:               0.0
 (Enter /public/software/gauss/g16/l301.exe)
 Standard basis: def2TZVPP (5D, 7F)
 Ernie: Thresh=  0.10000D-02 Tol=  0.10000D-05 Strict=F.
 There are  2475 symmetry adapted cartesian basis functions of A   symmetry.
 There are  2185 symmetry adapted basis functions of A   symmetry.
  2185 basis functions,  3299 primitive gaussians,  2475 cartesian basis functions
   180 alpha electrons      179 beta electrons
       nuclear repulsion energy      6206.9666240391 Hartrees.
 IExCor= 4336 DFT=T Ex+Corr=M062X ExCW=0 ScaHFX=  0.540000
 ScaDFX=  1.000000  1.000000  1.000000  1.000000 ScalE2=  1.000000  1.000000
 IRadAn=      5 IRanWt=     -1 IRanGd=            0 ICorTp=0 IEmpDi=131
 NAtoms=   97 NActive=   97 NUniq=   97 SFac= 1.00D+00 NAtFMM=   60 NAOKFM=T Big=T
 Integral buffers will be    131072 words long.
 Raffenetti 2 integral format.
 Two-electron integral symmetry is turned on.
 R6Disp:  Grimme-D3 Dispersion energy=       -0.0096782216 Hartrees.
 Nuclear repulsion after empirical dispersion term =     6206.9569458176 Hartrees.
 ------------------------------------------------------------------------------
 Polarizable Continuum Model (PCM)
 =================================
 Model                : PCM.
 Atomic radii         : UFF (Universal Force Field).
 Polarization charges : Total charges.
 Charge compensation  : None.
 Solution method      : On-the-fly selection.
 Cavity type          : Scaled VdW (van der Waals Surface) (Alpha=1.100).
 Cavity algorithm     : GePol (No added spheres)
                        Default sphere list used, NSphG=   97.
                        Lebedev-Laikov grids with approx.  5.0 points / Ang**2.
                        Smoothing algorithm: York/Karplus (Gamma=1.0000).
                        Polarization charges: spherical gaussians, with
                                              point-specific exponents (IZeta= 3).
                        Self-potential: point-specific (ISelfS= 7).
                        Self-field    : sphere-specific E.n sum rule (ISelfD= 2).
 Solvent              : Water, Eps=  78.355300 Eps(inf)=   1.777849
 ------------------------------------------------------------------------------
 GePol: Number of generator spheres                  =      97
 GePol: Total number of spheres                      =      97
 GePol: Number of exposed spheres                    =      97 (100.00%)
 GePol: Number of points                             =    6260
 GePol: Average weight of points                     =       0.13
 GePol: Minimum weight of points                     =   0.22D-10
 GePol: Maximum weight of points                     =    0.20577
 GePol: Number of points with low weight             =     467
 GePol: Fraction of low-weight points (<1% of avg)   =       7.46%
 GePol: Cavity surface area                          =    782.597 Ang**2
 GePol: Cavity volume                                =    949.383 Ang**3
 Leave Link  301 at Thu Nov  6 09:15:46 2025, MaxMem= 30870077440 cpu:               4.3 elap:               0.1
 (Enter /public/software/gauss/g16/l302.exe)
 NPDir=0 NMtPBC=     1 NCelOv=     1 NCel=       1 NClECP=     1 NCelD=      1
         NCelK=      1 NCelE2=     1 NClLst=     1 CellRange=     0.0.
 One-electron integrals computed using PRISM.
 One-electron integral symmetry used in STVInt
   1 Symmetry operations used in ECPInt.
 ECPInt:  NShTT=  340725 NPrTT=  925336 LenC2=  206883 LenP2D=  384131.
 LDataN:  DoStor=T MaxTD1= 6 Len=  172
 NBasis=  2185 RedAO= T EigKep=  3.45D-06  NBF=  2185
 NBsUse=  2185 1.00D-06 EigRej= -1.00D+00 NBFU=  2185
 Precomputing XC quadrature grid using
 IXCGrd= 4 IRadAn=           5 IRanWt=          -1 IRanGd=           0 AccXCQ= 0.00D+00.
 Generated NRdTot=       0 NPtTot=           0 NUsed=           0 NTot=          32
 NSgBfM=  2181  2167  2167  2174  2181 MxSgAt=    97 MxSgA2=    97.
 Leave Link  302 at Thu Nov  6 09:16:00 2025, MaxMem= 30870077440 cpu:             910.0 elap:              14.3
 (Enter /public/software/gauss/g16/l303.exe)
 DipDrv:  MaxL=1.
 Leave Link  303 at Thu Nov  6 09:16:01 2025, MaxMem= 30870077440 cpu:              37.4 elap:               0.7
 (Enter /public/software/gauss/g16/l401.exe)
 ExpMin= 6.06D-02 ExpMax= 4.48D+04 ExpMxC= 1.53D+03 IAcc=3 IRadAn=         5 AccDes= 0.00D+00
 Harris functional with IExCor= 1009 and IRadAn=       5 diagonalized for initial guess.
 HarFok:  IExCor= 1009 AccDes= 0.00D+00 IRadAn=         5 IDoV= 1 UseB2=F ITyADJ=14
 ICtDFT=  3500011 ScaDFX=  1.000000  1.000000  1.000000  1.000000
 FoFCou: FMM=F IPFlag=           0 FMFlag=      100000 FMFlg1=        2001
         NFxFlg=           0 DoJE=T BraDBF=F KetDBF=T FulRan=T
         wScrn=  0.000000 ICntrl=       500 IOpCl=  0 I1Cent=   200000004 NGrid=           0
         NMat0=    1 NMatS0=      1 NMatT0=    0 NMatD0=    1 NMtDS0=    0 NMtDT0=    0
 Petite list used in FoFCou.
 Harris En= -2364.27935299986    
 JPrj=0 DoOrth=F DoCkMO=F.
 Initial guess <Sx>= 0.0000 <Sy>= 0.0000 <Sz>= 0.5000 <S**2>= 0.7500 S= 0.5000
 Leave Link  401 at Thu Nov  6 09:16:17 2025, MaxMem= 30870077440 cpu:            1034.2 elap:              16.3
 (Enter /public/software/gauss/g16/l502.exe)
 Integral symmetry usage will be decided dynamically.
 UHF open shell SCF:
 Using DIIS extrapolation, IDIIS=  1040.
 NGot= 30870077440 LenX= 30857646751 LenY= 30851518651
 Requested convergence on RMS density matrix=1.00D-08 within 128 cycles.
 Requested convergence on MAX density matrix=1.00D-06.
 Requested convergence on             energy=1.00D-06.
 No special actions if energy rises.
 Fock matrices will be formed incrementally for  20 cycles.

 Cycle   1  Pass 1  IDiag  1:
 FoFJK:  IHMeth= 1 ICntrl=       0 DoSepK=F KAlg= 0 I1Cent=           0 FoldK=F
 IRaf= 570000000 NMat=       1 IRICut=       1 DoRegI=T DoRafI=F ISym2E= 0 IDoP0=0 IntGTp=1.
 FoFCou: FMM=T IPFlag=           0 FMFlag=      100000 FMFlg1=        2001
         NFxFlg=           0 DoJE=F BraDBF=F KetDBF=F FulRan=T
         wScrn=  0.000000 ICntrl=         0 IOpCl=  1 I1Cent=           0 NGrid=           0
         NMat0=    1 NMatS0=      1 NMatT0=    0 NMatD0=    1 NMtDS0=    0 NMtDT0=    0
 Symmetry not used in FoFCou.
 FMM levels:  10  Number of levels for PrismC:   9
 Inv3:  Mode=1 IEnd=   117562800.
 Iteration    1 A*A^-1 deviation from unit magnitude is 1.11D-14 for    760.
 Iteration    1 A*A^-1 deviation from orthogonality  is 4.83D-15 for   5519   1555.
 Iteration    1 A^-1*A deviation from unit magnitude is 1.01D-14 for   6256.
 Iteration    1 A^-1*A deviation from orthogonality  is 2.76D-15 for   1561   1512.
 E= -2363.77401924660    
 DIIS: error= 1.64D-02 at cycle   1 NSaved=   1.
 NSaved= 1 IEnMin= 1 EnMin= -2363.77401924660     IErMin= 1 ErrMin= 1.64D-02
 ErrMax= 1.64D-02  0.00D+00 EMaxC= 1.00D-01 BMatC= 6.94D+00 BMatP= 6.94D+00
 IDIUse=3 WtCom= 8.36D-01 WtEn= 1.64D-01
 Coeff-Com:  0.100D+01
 Coeff-En:   0.100D+01
 Coeff:      0.100D+01
 Gap=     0.167 Goal=   None    Shift=    0.000
 Gap=     0.154 Goal=   None    Shift=    0.000
 GapD=    0.154 DampG=1.000 DampE=0.500 DampFc=0.5000 IDamp=-1.
 Damping current iteration by 5.00D-01
 RMSDP=1.94D-03 MaxDP=6.83D-01              OVMax= 1.61D-01

 Cycle   2  Pass 1  IDiag  1:
 RMSU=  9.72D-04    CP:  9.99D-01
 E= -2364.51261247260     Delta-E=       -0.738593226006 Rises=F Damp=T
 DIIS: error= 4.75D-03 at cycle   2 NSaved=   2.
 NSaved= 2 IEnMin= 2 EnMin= -2364.51261247260     IErMin= 2 ErrMin= 4.75D-03
 ErrMax= 4.75D-03  0.00D+00 EMaxC= 1.00D-01 BMatC= 5.36D-01 BMatP= 6.94D+00
 IDIUse=3 WtCom= 9.52D-01 WtEn= 4.75D-02
 Coeff-Com: -0.115D+00 0.112D+01
 Coeff-En:   0.000D+00 0.100D+01
 Coeff:     -0.110D+00 0.111D+01
 Gap=     0.158 Goal=   None    Shift=    0.000
 Gap=     0.163 Goal=   None    Shift=    0.000
 RMSDP=7.23D-04 MaxDP=2.01D-01 DE=-7.39D-01 OVMax= 9.78D-02

 Cycle   3  Pass 1  IDiag  1:
 RMSU=  6.94D-04    CP:  9.83D-01  7.99D-01
 E= -2365.17924271297     Delta-E=       -0.666630240363 Rises=F Damp=F
 DIIS: error= 2.67D-03 at cycle   3 NSaved=   3.
 NSaved= 3 IEnMin= 3 EnMin= -2365.17924271297     IErMin= 3 ErrMin= 2.67D-03
 ErrMax= 2.67D-03  0.00D+00 EMaxC= 1.00D-01 BMatC= 2.00D-01 BMatP= 5.36D-01
 IDIUse=3 WtCom= 9.73D-01 WtEn= 2.67D-02
 Coeff-Com: -0.983D-01 0.433D+00 0.665D+00
 Coeff-En:   0.000D+00 0.000D+00 0.100D+01
 Coeff:     -0.957D-01 0.422D+00 0.674D+00
 Gap=     0.160 Goal=   None    Shift=    0.000
 Gap=     0.160 Goal=   None    Shift=    0.000
 RMSDP=2.66D-04 MaxDP=1.11D-01 DE=-6.67D-01 OVMax= 5.66D-02

 Cycle   4  Pass 1  IDiag  1:
 RMSU=  1.81D-04    CP:  9.88D-01  9.69D-01  8.52D-01
 E= -2365.20946849274     Delta-E=       -0.030225779768 Rises=F Damp=F
 DIIS: error= 1.53D-03 at cycle   4 NSaved=   4.
 NSaved= 4 IEnMin= 4 EnMin= -2365.20946849274     IErMin= 4 ErrMin= 1.53D-03
 ErrMax= 1.53D-03  0.00D+00 EMaxC= 1.00D-01 BMatC= 5.82D-02 BMatP= 2.00D-01
 IDIUse=3 WtCom= 9.85D-01 WtEn= 1.53D-02
 Coeff-Com: -0.373D-01 0.103D+00 0.382D+00 0.553D+00
 Coeff-En:   0.000D+00 0.000D+00 0.210D+00 0.790D+00
 Coeff:     -0.367D-01 0.101D+00 0.379D+00 0.557D+00
 Gap=     0.159 Goal=   None    Shift=    0.000
 Gap=     0.161 Goal=   None    Shift=    0.000
 RMSDP=1.36D-04 MaxDP=6.50D-02 DE=-3.02D-02 OVMax= 1.96D-02

 Cycle   5  Pass 1  IDiag  1:
 RMSU=  5.79D-05    CP:  9.85D-01  8.82D-01  9.37D-01  6.33D-01
 E= -2365.22095935773     Delta-E=       -0.011490864996 Rises=F Damp=F
 DIIS: error= 2.61D-04 at cycle   5 NSaved=   5.
 NSaved= 5 IEnMin= 5 EnMin= -2365.22095935773     IErMin= 5 ErrMin= 2.61D-04
 ErrMax= 2.61D-04  0.00D+00 EMaxC= 1.00D-01 BMatC= 1.61D-03 BMatP= 5.82D-02
 IDIUse=3 WtCom= 9.97D-01 WtEn= 2.61D-03
 Coeff-Com: -0.826D-02 0.153D-01 0.112D+00 0.222D+00 0.660D+00
 Coeff-En:   0.000D+00 0.000D+00 0.000D+00 0.000D+00 0.100D+01
 Coeff:     -0.824D-02 0.152D-01 0.111D+00 0.221D+00 0.661D+00
 Gap=     0.160 Goal=   None    Shift=    0.000
 Gap=     0.163 Goal=   None    Shift=    0.000
 RMSDP=2.23D-05 MaxDP=8.90D-03 DE=-1.15D-02 OVMax= 6.32D-03

 Cycle   6  Pass 1  IDiag  1:
 RMSU=  1.80D-05    CP:  9.85D-01  8.94D-01  9.33D-01  6.58D-01  9.75D-01
 E= -2365.22137635847     Delta-E=       -0.000417000734 Rises=F Damp=F
 DIIS: error= 7.82D-05 at cycle   6 NSaved=   6.
 NSaved= 6 IEnMin= 6 EnMin= -2365.22137635847     IErMin= 6 ErrMin= 7.82D-05
 ErrMax= 7.82D-05  0.00D+00 EMaxC= 1.00D-01 BMatC= 1.54D-04 BMatP= 1.61D-03
 IDIUse=1 WtCom= 1.00D+00 WtEn= 0.00D+00
 Coeff-Com:  0.493D-03-0.322D-02 0.361D-02 0.233D-01 0.215D+00 0.761D+00
 Coeff:      0.493D-03-0.322D-02 0.361D-02 0.233D-01 0.215D+00 0.761D+00
 Gap=     0.161 Goal=   None    Shift=    0.000
 Gap=     0.164 Goal=   None    Shift=    0.000
 RMSDP=1.33D-05 MaxDP=4.50D-03 DE=-4.17D-04 OVMax= 5.69D-03

 Cycle   7  Pass 1  IDiag  1:
 RMSU=  7.65D-06    CP:  9.85D-01  8.90D-01  9.40D-01  6.57D-01  1.11D+00
                    CP:  1.22D+00
 E= -2365.22146460914     Delta-E=       -0.000088250677 Rises=F Damp=F
 DIIS: error= 5.34D-05 at cycle   7 NSaved=   7.
 NSaved= 7 IEnMin= 7 EnMin= -2365.22146460914     IErMin= 7 ErrMin= 5.34D-05
 ErrMax= 5.34D-05  0.00D+00 EMaxC= 1.00D-01 BMatC= 4.44D-05 BMatP= 1.54D-04
 IDIUse=1 WtCom= 1.00D+00 WtEn= 0.00D+00
 Coeff-Com:  0.212D-02-0.476D-02-0.252D-01-0.459D-01-0.820D-01 0.247D+00
 Coeff-Com:  0.909D+00
 Coeff:      0.212D-02-0.476D-02-0.252D-01-0.459D-01-0.820D-01 0.247D+00
 Coeff:      0.909D+00
 Gap=     0.162 Goal=   None    Shift=    0.000
 Gap=     0.165 Goal=   None    Shift=    0.000
 RMSDP=9.04D-06 MaxDP=3.80D-03 DE=-8.83D-05 OVMax= 4.70D-03

 Cycle   8  Pass 1  IDiag  1:
 RMSU=  3.68D-06    CP:  9.85D-01  8.88D-01  9.42D-01  6.61D-01  1.19D+00
                    CP:  1.53D+00  1.47D+00
 E= -2365.22150803321     Delta-E=       -0.000043424066 Rises=F Damp=F
 DIIS: error= 3.34D-05 at cycle   8 NSaved=   8.
 NSaved= 8 IEnMin= 8 EnMin= -2365.22150803321     IErMin= 8 ErrMin= 3.34D-05
 ErrMax= 3.34D-05  0.00D+00 EMaxC= 1.00D-01 BMatC= 1.61D-05 BMatP= 4.44D-05
 IDIUse=1 WtCom= 1.00D+00 WtEn= 0.00D+00
 Coeff-Com:  0.784D-03-0.118D-02-0.118D-01-0.278D-01-0.995D-01-0.120D+00
 Coeff-Com:  0.410D+00 0.850D+00
 Coeff:      0.784D-03-0.118D-02-0.118D-01-0.278D-01-0.995D-01-0.120D+00
 Coeff:      0.410D+00 0.850D+00
 Gap=     0.163 Goal=   None    Shift=    0.000
 Gap=     0.166 Goal=   None    Shift=    0.000
 RMSDP=6.03D-06 MaxDP=2.55D-03 DE=-4.34D-05 OVMax= 3.64D-03

 Cycle   9  Pass 1  IDiag  1:
 RMSU=  2.12D-06    CP:  9.85D-01  8.87D-01  9.44D-01  6.61D-01  1.24D+00
                    CP:  1.69D+00  1.83D+00  1.53D+00
 E= -2365.22152374490     Delta-E=       -0.000015711688 Rises=F Damp=F
 DIIS: error= 1.80D-05 at cycle   9 NSaved=   9.
 NSaved= 9 IEnMin= 9 EnMin= -2365.22152374490     IErMin= 9 ErrMin= 1.80D-05
 ErrMax= 1.80D-05  0.00D+00 EMaxC= 1.00D-01 BMatC= 3.92D-06 BMatP= 1.61D-05
 IDIUse=1 WtCom= 1.00D+00 WtEn= 0.00D+00
 Coeff-Com: -0.336D-03 0.992D-03 0.298D-02 0.203D-02-0.169D-01-0.122D+00
 Coeff-Com: -0.102D+00 0.350D+00 0.885D+00
 Coeff:     -0.336D-03 0.992D-03 0.298D-02 0.203D-02-0.169D-01-0.122D+00
 Coeff:     -0.102D+00 0.350D+00 0.885D+00
 Gap=     0.163 Goal=   None    Shift=    0.000
 Gap=     0.166 Goal=   None    Shift=    0.000
 RMSDP=3.00D-06 MaxDP=1.29D-03 DE=-1.57D-05 OVMax= 2.24D-03

 Cycle  10  Pass 1  IDiag  1:
 RMSU=  1.15D-06    CP:  9.85D-01  8.87D-01  9.45D-01  6.62D-01  1.25D+00
                    CP:  1.77D+00  2.03D+00  1.93D+00  1.31D+00
 E= -2365.22152796122     Delta-E=       -0.000004216323 Rises=F Damp=F
 DIIS: error= 7.22D-06 at cycle  10 NSaved=  10.
 NSaved=10 IEnMin=10 EnMin= -2365.22152796122     IErMin=10 ErrMin= 7.22D-06
 ErrMax= 7.22D-06  0.00D+00 EMaxC= 1.00D-01 BMatC= 8.73D-07 BMatP= 3.92D-06
 IDIUse=1 WtCom= 1.00D+00 WtEn= 0.00D+00
 Coeff-Com: -0.315D-03 0.688D-03 0.401D-02 0.739D-02 0.151D-01-0.221D-01
 Coeff-Com: -0.133D+00-0.502D-01 0.346D+00 0.832D+00
 Coeff:     -0.315D-03 0.688D-03 0.401D-02 0.739D-02 0.151D-01-0.221D-01
 Coeff:     -0.133D+00-0.502D-01 0.346D+00 0.832D+00
 Gap=     0.163 Goal=   None    Shift=    0.000
 Gap=     0.166 Goal=   None    Shift=    0.000
 RMSDP=1.22D-06 MaxDP=4.37D-04 DE=-4.22D-06 OVMax= 1.01D-03

 Cycle  11  Pass 1  IDiag  1:
 RMSU=  5.48D-07    CP:  9.85D-01  8.87D-01  9.45D-01  6.62D-01  1.25D+00
                    CP:  1.79D+00  2.09D+00  2.08D+00  1.57D+00  1.29D+00
 E= -2365.22152889763     Delta-E=       -0.000000936412 Rises=F Damp=F
 DIIS: error= 5.34D-06 at cycle  11 NSaved=  11.
 NSaved=11 IEnMin=11 EnMin= -2365.22152889763     IErMin=11 ErrMin= 5.34D-06
 ErrMax= 5.34D-06  0.00D+00 EMaxC= 1.00D-01 BMatC= 1.79D-07 BMatP= 8.73D-07
 IDIUse=1 WtCom= 1.00D+00 WtEn= 0.00D+00
 Coeff-Com: -0.400D-05-0.342D-04 0.408D-03 0.138D-02 0.633D-02 0.161D-01
 Coeff-Com: -0.142D-01-0.722D-01-0.724D-01 0.213D+00 0.922D+00
 Coeff:     -0.400D-05-0.342D-04 0.408D-03 0.138D-02 0.633D-02 0.161D-01
 Coeff:     -0.142D-01-0.722D-01-0.724D-01 0.213D+00 0.922D+00
 Gap=     0.163 Goal=   None    Shift=    0.000
 Gap=     0.166 Goal=   None    Shift=    0.000
 RMSDP=5.50D-07 MaxDP=1.06D-04 DE=-9.36D-07 OVMax= 5.67D-04

 Cycle  12  Pass 1  IDiag  1:
 RMSU=  2.56D-07    CP:  9.85D-01  8.87D-01  9.45D-01  6.62D-01  1.25D+00
                    CP:  1.79D+00  2.10D+00  2.13D+00  1.66D+00  1.53D+00
                    CP:  1.54D+00
 E= -2365.22152918733     Delta-E=       -0.000000289701 Rises=F Damp=F
 DIIS: error= 2.69D-06 at cycle  12 NSaved=  12.
 NSaved=12 IEnMin=12 EnMin= -2365.22152918733     IErMin=12 ErrMin= 2.69D-06
 ErrMax= 2.69D-06  0.00D+00 EMaxC= 1.00D-01 BMatC= 7.80D-08 BMatP= 1.79D-07
 IDIUse=1 WtCom= 1.00D+00 WtEn= 0.00D+00
 Coeff-Com:  0.110D-03-0.253D-03-0.123D-02-0.211D-02-0.275D-02 0.140D-01
 Coeff-Com:  0.403D-01-0.949D-02-0.150D+00-0.211D+00 0.348D+00 0.974D+00
 Coeff:      0.110D-03-0.253D-03-0.123D-02-0.211D-02-0.275D-02 0.140D-01
 Coeff:      0.403D-01-0.949D-02-0.150D+00-0.211D+00 0.348D+00 0.974D+00
 Gap=     0.163 Goal=   None    Shift=    0.000
 Gap=     0.166 Goal=   None    Shift=    0.000
 RMSDP=4.71D-07 MaxDP=9.57D-05 DE=-2.90D-07 OVMax= 4.46D-04

 Cycle  13  Pass 1  IDiag  1:
 RMSU=  1.89D-07    CP:  9.85D-01  8.87D-01  9.45D-01  6.62D-01  1.25D+00
                    CP:  1.79D+00  2.10D+00  2.14D+00  1.72D+00  1.70D+00
                    CP:  2.12D+00  1.57D+00
 E= -2365.22152932957     Delta-E=       -0.000000142232 Rises=F Damp=F
 DIIS: error= 1.61D-06 at cycle  13 NSaved=  13.
 NSaved=13 IEnMin=13 EnMin= -2365.22152932957     IErMin=13 ErrMin= 1.61D-06
 ErrMax= 1.61D-06  0.00D+00 EMaxC= 1.00D-01 BMatC= 2.59D-08 BMatP= 7.80D-08
 IDIUse=1 WtCom= 1.00D+00 WtEn= 0.00D+00
 Coeff-Com:  0.469D-04-0.957D-04-0.643D-03-0.139D-02-0.311D-02 0.704D-03
 Coeff-Com:  0.221D-01 0.207D-01-0.416D-01-0.173D+00-0.151D+00 0.436D+00
 Coeff-Com:  0.892D+00
 Coeff:      0.469D-04-0.957D-04-0.643D-03-0.139D-02-0.311D-02 0.704D-03
 Coeff:      0.221D-01 0.207D-01-0.416D-01-0.173D+00-0.151D+00 0.436D+00
 Coeff:      0.892D+00
 Gap=     0.163 Goal=   None    Shift=    0.000
 Gap=     0.166 Goal=   None    Shift=    0.000
 RMSDP=2.91D-07 MaxDP=5.02D-05 DE=-1.42D-07 OVMax= 2.80D-04

 Cycle  14  Pass 1  IDiag  1:
 RMSU=  9.94D-08    CP:  9.85D-01  8.87D-01  9.45D-01  6.62D-01  1.25D+00
                    CP:  1.79D+00  2.10D+00  2.14D+00  1.74D+00  1.79D+00
                    CP:  2.42D+00  2.21D+00  1.46D+00
 E= -2365.22152937547     Delta-E=       -0.000000045902 Rises=F Damp=F
 DIIS: error= 8.47D-07 at cycle  14 NSaved=  14.
 NSaved=14 IEnMin=14 EnMin= -2365.22152937547     IErMin=14 ErrMin= 8.47D-07
 ErrMax= 8.47D-07  0.00D+00 EMaxC= 1.00D-01 BMatC= 7.56D-09 BMatP= 2.59D-08
 IDIUse=1 WtCom= 1.00D+00 WtEn= 0.00D+00
 Coeff-Com: -0.103D-04 0.279D-04 0.502D-04-0.534D-04-0.667D-03-0.358D-02
 Coeff-Com: -0.155D-02 0.111D-01 0.252D-01-0.186D-01-0.163D+00-0.104D+00
 Coeff-Com:  0.404D+00 0.851D+00
 Coeff:     -0.103D-04 0.279D-04 0.502D-04-0.534D-04-0.667D-03-0.358D-02
 Coeff:     -0.155D-02 0.111D-01 0.252D-01-0.186D-01-0.163D+00-0.104D+00
 Coeff:      0.404D+00 0.851D+00
 Gap=     0.163 Goal=   None    Shift=    0.000
 Gap=     0.166 Goal=   None    Shift=    0.000
 RMSDP=1.68D-07 MaxDP=3.78D-05 DE=-4.59D-08 OVMax= 1.41D-04

 Cycle  15  Pass 1  IDiag  1:
 RMSU=  4.91D-08    CP:  9.85D-01  8.87D-01  9.45D-01  6.62D-01  1.25D+00
                    CP:  1.79D+00  2.10D+00  2.14D+00  1.76D+00  1.81D+00
                    CP:  2.58D+00  2.47D+00  1.97D+00  1.42D+00
 E= -2365.22152938697     Delta-E=       -0.000000011498 Rises=F Damp=F
 DIIS: error= 3.94D-07 at cycle  15 NSaved=  15.
 NSaved=15 IEnMin=15 EnMin= -2365.22152938697     IErMin=15 ErrMin= 3.94D-07
 ErrMax= 3.94D-07  0.00D+00 EMaxC= 1.00D-01 BMatC= 2.03D-09 BMatP= 7.56D-09
 IDIUse=1 WtCom= 1.00D+00 WtEn= 0.00D+00
 Coeff-Com: -0.158D-04 0.354D-04 0.181D-03 0.321D-03 0.438D-03-0.181D-02
 Coeff-Com: -0.600D-02-0.373D-03 0.219D-01 0.344D-01-0.322D-01-0.165D+00
 Coeff-Com: -0.421D-01 0.386D+00 0.805D+00
 Coeff:     -0.158D-04 0.354D-04 0.181D-03 0.321D-03 0.438D-03-0.181D-02
 Coeff:     -0.600D-02-0.373D-03 0.219D-01 0.344D-01-0.322D-01-0.165D+00
 Coeff:     -0.421D-01 0.386D+00 0.805D+00
 Gap=     0.163 Goal=   None    Shift=    0.000
 Gap=     0.166 Goal=   None    Shift=    0.000
 RMSDP=8.00D-08 MaxDP=2.05D-05 DE=-1.15D-08 OVMax= 7.55D-05

 Cycle  16  Pass 1  IDiag  1:
 RMSU=  2.28D-08    CP:  9.85D-01  8.87D-01  9.45D-01  6.62D-01  1.25D+00
                    CP:  1.79D+00  2.10D+00  2.14D+00  1.76D+00  1.81D+00
                    CP:  2.62D+00  2.61D+00  2.20D+00  1.82D+00  1.37D+00
 E= -2365.22152938969     Delta-E=       -0.000000002723 Rises=F Damp=F
 DIIS: error= 1.88D-07 at cycle  16 NSaved=  16.
 NSaved=16 IEnMin=16 EnMin= -2365.22152938969     IErMin=16 ErrMin= 1.88D-07
 ErrMax= 1.88D-07  0.00D+00 EMaxC= 1.00D-01 BMatC= 3.91D-10 BMatP= 2.03D-09
 IDIUse=1 WtCom= 1.00D+00 WtEn= 0.00D+00
 Coeff-Com: -0.799D-08-0.775D-06 0.220D-04 0.810D-04 0.237D-03 0.555D-03
 Coeff-Com: -0.588D-03-0.337D-02-0.219D-02 0.125D-01 0.378D-01-0.129D-01
 Coeff-Com: -0.116D+00-0.147D+00 0.187D+00 0.104D+01
 Coeff:     -0.799D-08-0.775D-06 0.220D-04 0.810D-04 0.237D-03 0.555D-03
 Coeff:     -0.588D-03-0.337D-02-0.219D-02 0.125D-01 0.378D-01-0.129D-01
 Coeff:     -0.116D+00-0.147D+00 0.187D+00 0.104D+01
 Gap=     0.163 Goal=   None    Shift=    0.000
 Gap=     0.166 Goal=   None    Shift=    0.000
 RMSDP=5.29D-08 MaxDP=1.43D-05 DE=-2.72D-09 OVMax= 4.88D-05

 Cycle  17  Pass 1  IDiag  1:
 RMSU=  1.24D-08    CP:  9.85D-01  8.87D-01  9.45D-01  6.62D-01  1.25D+00
                    CP:  1.79D+00  2.10D+00  2.14D+00  1.76D+00  1.81D+00
                    CP:  2.64D+00  2.67D+00  2.35D+00  2.04D+00  1.82D+00
                    CP:  1.70D+00
 E= -2365.22152939107     Delta-E=       -0.000000001384 Rises=F Damp=F
 DIIS: error= 8.65D-08 at cycle  17 NSaved=  17.
 NSaved=17 IEnMin=17 EnMin= -2365.22152939107     IErMin=17 ErrMin= 8.65D-08
 ErrMax= 8.65D-08  0.00D+00 EMaxC= 1.00D-01 BMatC= 9.35D-11 BMatP= 3.91D-10
 IDIUse=1 WtCom= 1.00D+00 WtEn= 0.00D+00
 Coeff-Com:  0.309D-05-0.706D-05-0.300D-04-0.380D-04-0.228D-04 0.504D-03
 Coeff-Com:  0.114D-02-0.101D-02-0.501D-02-0.346D-02 0.176D-01 0.311D-01
 Coeff-Com: -0.215D-01-0.126D+00-0.129D+00 0.298D+00 0.938D+00
 Coeff:      0.309D-05-0.706D-05-0.300D-04-0.380D-04-0.228D-04 0.504D-03
 Coeff:      0.114D-02-0.101D-02-0.501D-02-0.346D-02 0.176D-01 0.311D-01
 Coeff:     -0.215D-01-0.126D+00-0.129D+00 0.298D+00 0.938D+00
 Gap=     0.163 Goal=   None    Shift=    0.000
 Gap=     0.166 Goal=   None    Shift=    0.000
 RMSDP=2.28D-08 MaxDP=5.80D-06 DE=-1.38D-09 OVMax= 2.23D-05

 Cycle  18  Pass 1  IDiag  1:
 RMSU=  5.32D-09    CP:  9.85D-01  8.87D-01  9.45D-01  6.62D-01  1.25D+00
                    CP:  1.79D+00  2.10D+00  2.14D+00  1.76D+00  1.81D+00
                    CP:  2.65D+00  2.69D+00  2.40D+00  2.14D+00  2.03D+00
                    CP:  2.12D+00  1.45D+00
 E= -2365.22152939081     Delta-E=        0.000000000262 Rises=F Damp=F
 DIIS: error= 5.54D-08 at cycle  18 NSaved=  18.
 NSaved=18 IEnMin=17 EnMin= -2365.22152939107     IErMin=18 ErrMin= 5.54D-08
 ErrMax= 5.54D-08  0.00D+00 EMaxC= 1.00D-01 BMatC= 3.18D-11 BMatP= 9.35D-11
 IDIUse=1 WtCom= 1.00D+00 WtEn= 0.00D+00
 Coeff-Com:  0.105D-05-0.237D-05-0.166D-04-0.306D-04-0.601D-04 0.654D-04
 Coeff-Com:  0.602D-03 0.401D-03-0.132D-02-0.449D-02-0.313D-02 0.135D-01
 Coeff-Com:  0.212D-01-0.119D-01-0.906D-01-0.146D+00 0.371D+00 0.851D+00
 Coeff:      0.105D-05-0.237D-05-0.166D-04-0.306D-04-0.601D-04 0.654D-04
 Coeff:      0.602D-03 0.401D-03-0.132D-02-0.449D-02-0.313D-02 0.135D-01
 Coeff:      0.212D-01-0.119D-01-0.906D-01-0.146D+00 0.371D+00 0.851D+00
 Gap=     0.163 Goal=   None    Shift=    0.000
 Gap=     0.166 Goal=   None    Shift=    0.000
 RMSDP=1.22D-08 MaxDP=3.16D-06 DE= 2.62D-10 OVMax= 1.02D-05

 Cycle  19  Pass 1  IDiag  1:
 RMSU=  2.67D-09    CP:  9.85D-01  8.87D-01  9.45D-01  6.62D-01  1.25D+00
                    CP:  1.79D+00  2.10D+00  2.14D+00  1.76D+00  1.81D+00
                    CP:  2.65D+00  2.69D+00  2.42D+00  2.18D+00  2.12D+00
                    CP:  2.30D+00  1.77D+00  1.46D+00
 E= -2365.22152939091     Delta-E=       -0.000000000098 Rises=F Damp=F
 DIIS: error= 3.49D-08 at cycle  19 NSaved=  19.
 NSaved=19 IEnMin=17 EnMin= -2365.22152939107     IErMin=19 ErrMin= 3.49D-08
 ErrMax= 3.49D-08  0.00D+00 EMaxC= 1.00D-01 BMatC= 7.42D-12 BMatP= 3.18D-11
 IDIUse=1 WtCom= 1.00D+00 WtEn= 0.00D+00
 Coeff-Com: -0.722D-06 0.160D-05 0.398D-05 0.417D-05-0.106D-04-0.129D-03
 Coeff-Com: -0.177D-03 0.423D-03 0.115D-02-0.175D-03-0.586D-02-0.572D-02
 Coeff-Com:  0.134D-01 0.327D-01 0.163D-01-0.137D+00-0.161D+00 0.219D+00
 Coeff-Com:  0.103D+01
 Coeff:     -0.722D-06 0.160D-05 0.398D-05 0.417D-05-0.106D-04-0.129D-03
 Coeff:     -0.177D-03 0.423D-03 0.115D-02-0.175D-03-0.586D-02-0.572D-02
 Coeff:      0.134D-01 0.327D-01 0.163D-01-0.137D+00-0.161D+00 0.219D+00
 Coeff:      0.103D+01
 Gap=     0.163 Goal=   None    Shift=    0.000
 Gap=     0.166 Goal=   None    Shift=    0.000
 RMSDP=6.80D-09 MaxDP=1.95D-06 DE=-9.82D-11 OVMax= 4.75D-06

 Cycle  20  Pass 1  IDiag  1:
 RMSU=  1.50D-09    CP:  9.85D-01  8.87D-01  9.45D-01  6.62D-01  1.25D+00
                    CP:  1.79D+00  2.10D+00  2.14D+00  1.76D+00  1.81D+00
                    CP:  2.65D+00  2.69D+00  2.43D+00  2.19D+00  2.16D+00
                    CP:  2.38D+00  1.95D+00  1.92D+00  1.61D+00
 E= -2365.22152939084     Delta-E=        0.000000000071 Rises=F Damp=F
 DIIS: error= 2.01D-08 at cycle  20 NSaved=  20.
 NSaved=20 IEnMin=17 EnMin= -2365.22152939107     IErMin=20 ErrMin= 2.01D-08
 ErrMax= 2.01D-08  0.00D+00 EMaxC= 1.00D-01 BMatC= 2.20D-12 BMatP= 7.42D-12
 IDIUse=1 WtCom= 1.00D+00 WtEn= 0.00D+00
 Coeff-Com: -0.434D-06 0.100D-05 0.443D-05 0.769D-05 0.634D-05-0.528D-04
 Coeff-Com: -0.181D-03 0.623D-04 0.625D-03 0.884D-03-0.108D-02-0.511D-02
 Coeff-Com: -0.395D-03 0.124D-01 0.287D-01-0.816D-02-0.130D+00-0.144D+00
 Coeff-Com:  0.308D+00 0.938D+00
 Coeff:     -0.434D-06 0.100D-05 0.443D-05 0.769D-05 0.634D-05-0.528D-04
 Coeff:     -0.181D-03 0.623D-04 0.625D-03 0.884D-03-0.108D-02-0.511D-02
 Coeff:     -0.395D-03 0.124D-01 0.287D-01-0.816D-02-0.130D+00-0.144D+00
 Coeff:      0.308D+00 0.938D+00
 Gap=     0.163 Goal=   None    Shift=    0.000
 Gap=     0.166 Goal=   None    Shift=    0.000
 RMSDP=2.57D-09 MaxDP=4.67D-07 DE= 7.09D-11 OVMax= 1.52D-06

 Error on total polarization charges =  0.02679
 SCF Done:  E(UM062X) =  -2365.22152939     A.U. after   20 cycles
            NFock= 20  Conv=0.26D-08     -V/T= 2.0052
 <Sx>= 0.0000 <Sy>= 0.0000 <Sz>= 0.5000 <S**2>= 0.7920 S= 0.5208
 <L.S>= 0.000000000000E+00
 KE= 2.352930159547D+03 PE=-1.797417181666D+04 EE= 7.049063181904D+03
 Annihilation of the first spin contaminant:
 S**2 before annihilation     0.7920,   after     0.7511
 Leave Link  502 at Thu Nov  6 10:04:04 2025, MaxMem= 30870077440 cpu:          181407.4 elap:            2866.8
 (Enter /public/software/gauss/g16/l601.exe)
 Copying SCF densities to generalized density rwf, IOpCl= 1 IROHF=0.

 **********************************************************************

            Population analysis using the SCF density.

 **********************************************************************

 Orbital symmetries:
 Alpha Orbitals:
       Occupied  (A) (A) (A) (A) (A) (A) (A) (A) (A) (A) (A) (A)
                 (A) (A) (A) (A) (A) (A) (A) (A) (A) (A) (A) (A)
                 (A) (A) (A) (A) (A) (A) (A) (A) (A) (A) (A) (A)
                 (A) (A) (A) (A) (A) (A) (A) (A) (A) (A) (A) (A)
                 (A) (A) (A) (A) (A) (A) (A) (A) (A) (A) (A) (A)
                 (A) (A) (A) (A) (A) (A) (A) (A) (A) (A) (A) (A)
                 (A) (A) (A) (A) (A) (A) (A) (A) (A) (A) (A) (A)
                 (A) (A) (A) (A) (A) (A) (A) (A) (A) (A) (A) (A)
                 (A) (A) (A) (A) (A) (A) (A) (A) (A) (A) (A) (A)
                 (A) (A) (A) (A) (A) (A) (A) (A) (A) (A) (A) (A)
                 (A) (A) (A) (A) (A) (A) (A) (A) (A) (A) (A) (A)
                 (A) (A) (A) (A) (A) (A) (A) (A) (A) (A) (A) (A)
                 (A) (A) (A) (A) (A) (A) (A) (A) (A) (A) (A) (A)
                 (A) (A) (A) (A) (A) (A) (A) (A) (A) (A) (A) (A)
                 (A) (A) (A) (A) (A) (A) (A) (A) (A) (A) (A) (A)
       Virtual   (A) (A) (A) (A) (A) (A) (A) (A) (A) (A) (A) (A)
                 (A) (A) (A) (A) (A) (A) (A) (A) (A) (A) (A) (A)
                 (A) (A) (A) (A) (A) (A) (A) (A) (A) (A) (A) (A)
                 (A) (A) (A) (A) (A) (A) (A) (A) (A) (A) (A) (A)
                 (A) (A) (A) (A) (A) (A) (A) (A) (A) (A) (A) (A)
                 (A) (A) (A) (A) (A) (A) (A) (A) (A) (A) (A) (A)
                 (A) (A) (A) (A) (A) (A) (A) (A) (A) (A) (A) (A)
                 (A) (A) (A) (A) (A) (A) (A) (A) (A) (A) (A) (A)
                 (A) (A) (A) (A) (A) (A) (A) (A) (A) (A) (A) (A)
                 (A) (A) (A) (A) (A) (A) (A) (A) (A) (A) (A) (A)
                 (A) (A) (A) (A) (A) (A) (A) (A) (A) (A) (A) (A)
                 (A) (A) (A) (A) (A) (A) (A) (A) (A) (A) (A) (A)
                 (A) (A) (A) (A) (A) (A) (A) (A) (A) (A) (A) (A)
                 (A) (A) (A) (A) (A) (A) (A) (A) (A) (A) (A) (A)
                 (A) (A) (A) (A) (A) (A) (A) (A) (A) (A) (A) (A)
                 (A) (A) (A) (A) (A) (A) (A) (A) (A) (A) (A) (A)
                 (A) (A) (A) (A) (A) (A) (A) (A) (A) (A) (A) (A)
                 (A) (A) (A) (A) (A) (A) (A) (A) (A) (A) (A) (A)
                 (A) (A) (A) (A) (A) (A) (A) (A) (A) (A) (A) (A)
                 (A) (A) (A) (A) (A) (A) (A) (A) (A) (A) (A) (A)
                 (A) (A) (A) (A) (A) (A) (A) (A) (A) (A) (A) (A)
                 (A) (A) (A) (A) (A) (A) (A) (A) (A) (A) (A) (A)
                 (A) (A) (A) (A) (A) (A) (A) (A) (A) (A) (A) (A)
                 (A) (A) (A) (A) (A) (A) (A) (A) (A) (A) (A) (A)
                 (A) (A) (A) (A) (A) (A) (A) (A) (A) (A) (A) (A)
                 (A) (A) (A) (A) (A) (A) (A) (A) (A) (A) (A) (A)
                 (A) (A) (A) (A) (A) (A) (A) (A) (A) (A) (A) (A)
                 (A) (A) (A) (A) (A) (A) (A) (A) (A) (A) (A) (A)
                 (A) (A) (A) (A) (A) (A) (A) (A) (A) (A) (A) (A)
                 (A) (A) (A) (A) (A) (A) (A) (A) (A) (A) (A) (A)
                 (A) (A) (A) (A) (A) (A) (A) (A) (A) (A) (A) (A)
                 (A) (A) (A) (A) (A) (A) (A) (A) (A) (A) (A) (A)
                 (A) (A) (A) (A) (A) (A) (A) (A) (A) (A) (A) (A)
                 (A) (A) (A) (A) (A) (A) (A) (A) (A) (A) (A) (A)
                 (A) (A) (A) (A) (A) (A) (A) (A) (A) (A) (A) (A)
                 (A) (A) (A) (A) (A) (A) (A) (A) (A) (A) (A) (A)
                 (A) (A) (A) (A) (A) (A) (A) (A) (A) (A) (A) (A)
                 (A) (A) (A) (A) (A) (A) (A) (A) (A) (A) (A) (A)
                 (A) (A) (A) (A) (A) (A) (A) (A) (A) (A) (A) (A)
                 (A) (A) (A) (A) (A) (A) (A) (A) (A) (A) (A) (A)
                 (A) (A) (A) (A) (A) (A) (A) (A) (A) (A) (A) (A)
                 (A) (A) (A) (A) (A) (A) (A) (A) (A) (A) (A) (A)
                 (A) (A) (A) (A) (A) (A) (A) (A) (A) (A) (A) (A)
                 (A) (A) (A) (A) (A) (A) (A) (A) (A) (A) (A) (A)
                 (A) (A) (A) (A) (A) (A) (A) (A) (A) (A) (A) (A)
                 (A) (A) (A) (A) (A) (A) (A) (A) (A) (A) (A) (A)
                 (A) (A) (A) (A) (A) (A) (A) (A) (A) (A) (A) (A)
                 (A) (A) (A) (A) (A) (A) (A) (A) (A) (A) (A) (A)
                 (A) (A) (A) (A) (A) (A) (A) (A) (A) (A) (A) (A)
                 (A) (A) (A) (A) (A) (A) (A) (A) (A) (A) (A) (A)
                 (A) (A) (A) (A) (A) (A) (A) (A) (A) (A) (A) (A)
                 (A) (A) (A) (A) (A) (A) (A) (A) (A) (A) (A) (A)
                 (A) (A) (A) (A) (A) (A) (A) (A) (A) (A) (A) (A)
                 (A) (A) (A) (A) (A) (A) (A) (A) (A) (A) (A) (A)
                 (A) (A) (A) (A) (A) (A) (A) (A) (A) (A) (A) (A)
                 (A) (A) (A) (A) (A) (A) (A) (A) (A) (A) (A) (A)
                 (A) (A) (A) (A) (A) (A) (A) (A) (A) (A) (A) (A)
                 (A) (A) (A) (A) (A) (A) (A) (A) (A) (A) (A) (A)
                 (A) (A) (A) (A) (A) (A) (A) (A) (A) (A) (A) (A)
                 (A) (A) (A) (A) (A) (A) (A) (A) (A) (A) (A) (A)
                 (A) (A) (A) (A) (A) (A) (A) (A) (A) (A) (A) (A)
                 (A) (A) (A) (A) (A) (A) (A) (A) (A) (A) (A) (A)
                 (A) (A) (A) (A) (A) (A) (A) (A) (A) (A) (A) (A)
                 (A) (A) (A) (A) (A) (A) (A) (A) (A) (A) (A) (A)
                 (A) (A) (A) (A) (A) (A) (A) (A) (A) (A) (A) (A)
                 (A) (A) (A) (A) (A) (A) (A) (A) (A) (A) (A) (A)
                 (A) (A) (A) (A) (A) (A) (A) (A) (A) (A) (A) (A)
                 (A) (A) (A) (A) (A) (A) (A) (A) (A) (A) (A) (A)
                 (A) (A) (A) (A) (A) (A) (A) (A) (A) (A) (A) (A)
                 (A) (A) (A) (A) (A) (A) (A) (A) (A) (A) (A) (A)
                 (A) (A) (A) (A) (A) (A) (A) (A) (A) (A) (A) (A)
                 (A) (A) (A) (A) (A) (A) (A) (A) (A) (A) (A) (A)
                 (A) (A) (A) (A) (A) (A) (A) (A) (A) (A) (A) (A)
                 (A) (A) (A) (A) (A) (A) (A) (A) (A) (A) (A) (A)
                 (A) (A) (A) (A) (A) (A) (A) (A) (A) (A) (A) (A)
                 (A) (A) (A) (A) (A) (A) (A) (A) (A) (A) (A) (A)
                 (A) (A) (A) (A) (A) (A) (A) (A) (A) (A) (A) (A)
                 (A) (A) (A) (A) (A) (A) (A) (A) (A) (A) (A) (A)
                 (A) (A) (A) (A) (A) (A) (A) (A) (A) (A) (A) (A)
                 (A) (A) (A) (A) (A) (A) (A) (A) (A) (A) (A) (A)
                 (A) (A) (A) (A) (A) (A) (A) (A) (A) (A) (A) (A)
                 (A) (A) (A) (A) (A) (A) (A) (A) (A) (A) (A) (A)
                 (A) (A) (A) (A) (A) (A) (A) (A) (A) (A) (A) (A)
                 (A) (A) (A) (A) (A) (A) (A) (A) (A) (A) (A) (A)
                 (A) (A) (A) (A) (A) (A) (A) (A) (A) (A) (A) (A)
                 (A) (A) (A) (A) (A) (A) (A) (A) (A) (A) (A) (A)
                 (A) (A) (A) (A) (A) (A) (A) (A) (A) (A) (A) (A)
                 (A) (A) (A) (A) (A) (A) (A) (A) (A) (A) (A) (A)
                 (A) (A) (A) (A) (A) (A) (A) (A) (A) (A) (A) (A)
                 (A) (A) (A) (A) (A) (A) (A) (A) (A) (A) (A) (A)
                 (A) (A) (A) (A) (A) (A) (A) (A) (A) (A) (A) (A)
                 (A) (A) (A) (A) (A) (A) (A) (A) (A) (A) (A) (A)
                 (A) (A) (A) (A) (A) (A) (A) (A) (A) (A) (A) (A)
                 (A) (A) (A) (A) (A) (A) (A) (A) (A) (A) (A) (A)
                 (A) (A) (A) (A) (A) (A) (A) (A) (A) (A) (A) (A)
                 (A) (A) (A) (A) (A) (A) (A) (A) (A) (A) (A) (A)
                 (A) (A) (A) (A) (A) (A) (A) (A) (A) (A) (A) (A)
                 (A) (A) (A) (A) (A) (A) (A) (A) (A) (A) (A) (A)
                 (A) (A) (A) (A) (A) (A) (A) (A) (A) (A) (A) (A)
                 (A) (A) (A) (A) (A) (A) (A) (A) (A) (A) (A) (A)
                 (A) (A) (A) (A) (A) (A) (A) (A) (A) (A) (A) (A)
                 (A) (A) (A) (A) (A) (A) (A) (A) (A) (A) (A) (A)
                 (A) (A) (A) (A) (A) (A) (A) (A) (A) (A) (A) (A)
                 (A) (A) (A) (A) (A) (A) (A) (A) (A) (A) (A) (A)
                 (A) (A) (A) (A) (A) (A) (A) (A) (A) (A) (A) (A)
                 (A) (A) (A) (A) (A) (A) (A) (A) (A) (A) (A) (A)
                 (A) (A) (A) (A) (A) (A) (A) (A) (A) (A) (A) (A)
                 (A) (A) (A) (A) (A) (A) (A) (A) (A) (A) (A) (A)
                 (A) (A) (A) (A) (A) (A) (A) (A) (A) (A) (A) (A)
                 (A) (A) (A) (A) (A) (A) (A) (A) (A) (A) (A) (A)
                 (A) (A) (A) (A) (A) (A) (A) (A) (A) (A) (A) (A)
                 (A) (A) (A) (A) (A) (A) (A) (A) (A) (A) (A) (A)
                 (A) (A) (A) (A) (A) (A) (A) (A) (A) (A) (A) (A)
                 (A) (A) (A) (A) (A) (A) (A) (A) (A) (A) (A) (A)
                 (A) (A) (A) (A) (A) (A) (A) (A) (A) (A) (A) (A)
                 (A) (A) (A) (A) (A) (A) (A) (A) (A) (A) (A) (A)
                 (A) (A) (A) (A) (A) (A) (A) (A) (A) (A) (A) (A)
                 (A) (A) (A) (A) (A) (A) (A) (A) (A) (A) (A) (A)
                 (A) (A) (A) (A) (A) (A) (A) (A) (A) (A) (A) (A)
                 (A) (A) (A) (A) (A) (A) (A) (A) (A) (A) (A) (A)
                 (A) (A) (A) (A) (A) (A) (A) (A) (A) (A) (A) (A)
                 (A) (A) (A) (A) (A) (A) (A) (A) (A) (A) (A) (A)
                 (A) (A) (A) (A) (A) (A) (A) (A) (A) (A) (A) (A)
                 (A) (A) (A) (A) (A) (A) (A) (A) (A) (A) (A) (A)
                 (A) (A) (A) (A) (A) (A) (A) (A) (A) (A) (A) (A)
                 (A) (A) (A) (A) (A) (A) (A) (A) (A) (A) (A) (A)
                 (A) (A) (A) (A) (A) (A) (A) (A) (A) (A) (A) (A)
                 (A) (A) (A) (A) (A) (A) (A) (A) (A) (A) (A) (A)
                 (A) (A) (A) (A) (A) (A) (A) (A) (A) (A) (A) (A)
                 (A) (A) (A) (A) (A) (A) (A) (A) (A) (A) (A) (A)
                 (A) (A) (A) (A) (A) (A) (A) (A) (A) (A) (A) (A)
                 (A) (A) (A) (A) (A) (A) (A) (A) (A) (A) (A) (A)
                 (A) (A) (A) (A) (A) (A) (A) (A) (A) (A) (A) (A)
                 (A) (A) (A) (A) (A) (A) (A) (A) (A) (A) (A) (A)
                 (A) (A) (A) (A) (A) (A) (A) (A) (A) (A) (A) (A)
                 (A) (A) (A) (A) (A) (A) (A) (A) (A) (A) (A) (A)
                 (A) (A) (A) (A) (A) (A) (A) (A) (A) (A) (A) (A)
                 (A) (A) (A) (A) (A) (A) (A) (A) (A) (A) (A) (A)
                 (A) (A) (A) (A) (A) (A) (A) (A) (A) (A) (A) (A)
                 (A) (A) (A) (A) (A) (A) (A) (A) (A) (A) (A) (A)
                 (A) (A) (A) (A) (A) (A) (A) (A) (A) (A) (A) (A)
                 (A) (A) (A) (A) (A) (A) (A) (A) (A) (A) (A) (A)
                 (A) (A) (A) (A) (A) (A) (A) (A) (A) (A) (A) (A)
                 (A) (A) (A) (A) (A) (A) (A) (A) (A) (A) (A) (A)
                 (A) (A) (A) (A) (A) (A) (A) (A) (A) (A) (A) (A)
                 (A) (A) (A) (A) (A) (A) (A) (A) (A) (A) (A) (A)
                 (A) (A) (A) (A) (A) (A) (A) (A) (A) (A) (A) (A)
                 (A) (A) (A) (A) (A) (A) (A) (A) (A) (A) (A) (A)
                 (A) (A) (A) (A) (A) (A) (A) (A) (A) (A) (A) (A)
                 (A) (A) (A) (A) (A) (A) (A) (A) (A) (A) (A) (A)
                 (A) (A) (A) (A) (A) (A) (A) (A) (A) (A) (A) (A)
                 (A) (A) (A) (A) (A) (A) (A) (A) (A) (A) (A) (A)
                 (A) (A) (A) (A) (A) (A) (A) (A) (A) (A) (A) (A)
                 (A) (A) (A) (A) (A) (A) (A) (A) (A) (A) (A) (A)
                 (A) (A) (A) (A) (A) (A) (A) (A) (A) (A) (A) (A)
                 (A) (A) (A) (A) (A) (A) (A) (A) (A) (A) (A) (A)
                 (A) (A) (A) (A) (A) (A) (A) (A) (A) (A) (A) (A)
                 (A) (A) (A) (A) (A) (A) (A) (A) (A) (A) (A) (A)
                 (A) (A) (A) (A) (A) (A) (A) (A) (A) (A) (A) (A)
                 (A) (A) (A) (A) (A) (A) (A) (A) (A) (A) (A) (A)
                 (A) (A) (A) (A) (A) (A) (A) (A) (A) (A) (A) (A)
                 (A) (A) (A) (A) (A) (A) (A) (A) (A) (A) (A) (A)
                 (A) (A) (A) (A) (A) (A) (A) (A) (A) (A) (A) (A)
                 (A) (A) (A) (A) (A) (A) (A) (A) (A) (A) (A) (A)
                 (A) (A) (A) (A) (A) (A) (A) (A) (A) (A) (A) (A)
                 (A) (A) (A) (A) (A) (A) (A) (A) (A) (A) (A) (A)
                 (A) (A) (A) (A) (A) (A) (A) (A) (A) (A) (A) (A)
                 (A)
 Beta  Orbitals:
       Occupied  (A) (A) (A) (A) (A) (A) (A) (A) (A) (A) (A) (A)
                 (A) (A) (A) (A) (A) (A) (A) (A) (A) (A) (A) (A)
                 (A) (A) (A) (A) (A) (A) (A) (A) (A) (A) (A) (A)
                 (A) (A) (A) (A) (A) (A) (A) (A) (A) (A) (A) (A)
                 (A) (A) (A) (A) (A) (A) (A) (A) (A) (A) (A) (A)
                 (A) (A) (A) (A) (A) (A) (A) (A) (A) (A) (A) (A)
                 (A) (A) (A) (A) (A) (A) (A) (A) (A) (A) (A) (A)
                 (A) (A) (A) (A) (A) (A) (A) (A) (A) (A) (A) (A)
                 (A) (A) (A) (A) (A) (A) (A) (A) (A) (A) (A) (A)
                 (A) (A) (A) (A) (A) (A) (A) (A) (A) (A) (A) (A)
                 (A) (A) (A) (A) (A) (A) (A) (A) (A) (A) (A) (A)
                 (A) (A) (A) (A) (A) (A) (A) (A) (A) (A) (A) (A)
                 (A) (A) (A) (A) (A) (A) (A) (A) (A) (A) (A) (A)
                 (A) (A) (A) (A) (A) (A) (A) (A) (A) (A) (A) (A)
                 (A) (A) (A) (A) (A) (A) (A) (A) (A) (A) (A)
       Virtual   (A) (A) (A) (A) (A) (A) (A) (A) (A) (A) (A) (A)
                 (A) (A) (A) (A) (A) (A) (A) (A) (A) (A) (A) (A)
                 (A) (A) (A) (A) (A) (A) (A) (A) (A) (A) (A) (A)
                 (A) (A) (A) (A) (A) (A) (A) (A) (A) (A) (A) (A)
                 (A) (A) (A) (A) (A) (A) (A) (A) (A) (A) (A) (A)
                 (A) (A) (A) (A) (A) (A) (A) (A) (A) (A) (A) (A)
                 (A) (A) (A) (A) (A) (A) (A) (A) (A) (A) (A) (A)
                 (A) (A) (A) (A) (A) (A) (A) (A) (A) (A) (A) (A)
                 (A) (A) (A) (A) (A) (A) (A) (A) (A) (A) (A) (A)
                 (A) (A) (A) (A) (A) (A) (A) (A) (A) (A) (A) (A)
                 (A) (A) (A) (A) (A) (A) (A) (A) (A) (A) (A) (A)
                 (A) (A) (A) (A) (A) (A) (A) (A) (A) (A) (A) (A)
                 (A) (A) (A) (A) (A) (A) (A) (A) (A) (A) (A) (A)
                 (A) (A) (A) (A) (A) (A) (A) (A) (A) (A) (A) (A)
                 (A) (A) (A) (A) (A) (A) (A) (A) (A) (A) (A) (A)
                 (A) (A) (A) (A) (A) (A) (A) (A) (A) (A) (A) (A)
                 (A) (A) (A) (A) (A) (A) (A) (A) (A) (A) (A) (A)
                 (A) (A) (A) (A) (A) (A) (A) (A) (A) (A) (A) (A)
                 (A) (A) (A) (A) (A) (A) (A) (A) (A) (A) (A) (A)
                 (A) (A) (A) (A) (A) (A) (A) (A) (A) (A) (A) (A)
                 (A) (A) (A) (A) (A) (A) (A) (A) (A) (A) (A) (A)
                 (A) (A) (A) (A) (A) (A) (A) (A) (A) (A) (A) (A)
                 (A) (A) (A) (A) (A) (A) (A) (A) (A) (A) (A) (A)
                 (A) (A) (A) (A) (A) (A) (A) (A) (A) (A) (A) (A)
                 (A) (A) (A) (A) (A) (A) (A) (A) (A) (A) (A) (A)
                 (A) (A) (A) (A) (A) (A) (A) (A) (A) (A) (A) (A)
                 (A) (A) (A) (A) (A) (A) (A) (A) (A) (A) (A) (A)
                 (A) (A) (A) (A) (A) (A) (A) (A) (A) (A) (A) (A)
                 (A) (A) (A) (A) (A) (A) (A) (A) (A) (A) (A) (A)
                 (A) (A) (A) (A) (A) (A) (A) (A) (A) (A) (A) (A)
                 (A) (A) (A) (A) (A) (A) (A) (A) (A) (A) (A) (A)
                 (A) (A) (A) (A) (A) (A) (A) (A) (A) (A) (A) (A)
                 (A) (A) (A) (A) (A) (A) (A) (A) (A) (A) (A) (A)
                 (A) (A) (A) (A) (A) (A) (A) (A) (A) (A) (A) (A)
                 (A) (A) (A) (A) (A) (A) (A) (A) (A) (A) (A) (A)
                 (A) (A) (A) (A) (A) (A) (A) (A) (A) (A) (A) (A)
                 (A) (A) (A) (A) (A) (A) (A) (A) (A) (A) (A) (A)
                 (A) (A) (A) (A) (A) (A) (A) (A) (A) (A) (A) (A)
                 (A) (A) (A) (A) (A) (A) (A) (A) (A) (A) (A) (A)
                 (A) (A) (A) (A) (A) (A) (A) (A) (A) (A) (A) (A)
                 (A) (A) (A) (A) (A) (A) (A) (A) (A) (A) (A) (A)
                 (A) (A) (A) (A) (A) (A) (A) (A) (A) (A) (A) (A)
                 (A) (A) (A) (A) (A) (A) (A) (A) (A) (A) (A) (A)
                 (A) (A) (A) (A) (A) (A) (A) (A) (A) (A) (A) (A)
                 (A) (A) (A) (A) (A) (A) (A) (A) (A) (A) (A) (A)
                 (A) (A) (A) (A) (A) (A) (A) (A) (A) (A) (A) (A)
                 (A) (A) (A) (A) (A) (A) (A) (A) (A) (A) (A) (A)
                 (A) (A) (A) (A) (A) (A) (A) (A) (A) (A) (A) (A)
                 (A) (A) (A) (A) (A) (A) (A) (A) (A) (A) (A) (A)
                 (A) (A) (A) (A) (A) (A) (A) (A) (A) (A) (A) (A)
                 (A) (A) (A) (A) (A) (A) (A) (A) (A) (A) (A) (A)
                 (A) (A) (A) (A) (A) (A) (A) (A) (A) (A) (A) (A)
                 (A) (A) (A) (A) (A) (A) (A) (A) (A) (A) (A) (A)
                 (A) (A) (A) (A) (A) (A) (A) (A) (A) (A) (A) (A)
                 (A) (A) (A) (A) (A) (A) (A) (A) (A) (A) (A) (A)
                 (A) (A) (A) (A) (A) (A) (A) (A) (A) (A) (A) (A)
                 (A) (A) (A) (A) (A) (A) (A) (A) (A) (A) (A) (A)
                 (A) (A) (A) (A) (A) (A) (A) (A) (A) (A) (A) (A)
                 (A) (A) (A) (A) (A) (A) (A) (A) (A) (A) (A) (A)
                 (A) (A) (A) (A) (A) (A) (A) (A) (A) (A) (A) (A)
                 (A) (A) (A) (A) (A) (A) (A) (A) (A) (A) (A) (A)
                 (A) (A) (A) (A) (A) (A) (A) (A) (A) (A) (A) (A)
                 (A) (A) (A) (A) (A) (A) (A) (A) (A) (A) (A) (A)
                 (A) (A) (A) (A) (A) (A) (A) (A) (A) (A) (A) (A)
                 (A) (A) (A) (A) (A) (A) (A) (A) (A) (A) (A) (A)
                 (A) (A) (A) (A) (A) (A) (A) (A) (A) (A) (A) (A)
                 (A) (A) (A) (A) (A) (A) (A) (A) (A) (A) (A) (A)
                 (A) (A) (A) (A) (A) (A) (A) (A) (A) (A) (A) (A)
                 (A) (A) (A) (A) (A) (A) (A) (A) (A) (A) (A) (A)
                 (A) (A) (A) (A) (A) (A) (A) (A) (A) (A) (A) (A)
                 (A) (A) (A) (A) (A) (A) (A) (A) (A) (A) (A) (A)
                 (A) (A) (A) (A) (A) (A) (A) (A) (A) (A) (A) (A)
                 (A) (A) (A) (A) (A) (A) (A) (A) (A) (A) (A) (A)
                 (A) (A) (A) (A) (A) (A) (A) (A) (A) (A) (A) (A)
                 (A) (A) (A) (A) (A) (A) (A) (A) (A) (A) (A) (A)
                 (A) (A) (A) (A) (A) (A) (A) (A) (A) (A) (A) (A)
                 (A) (A) (A) (A) (A) (A) (A) (A) (A) (A) (A) (A)
                 (A) (A) (A) (A) (A) (A) (A) (A) (A) (A) (A) (A)
                 (A) (A) (A) (A) (A) (A) (A) (A) (A) (A) (A) (A)
                 (A) (A) (A) (A) (A) (A) (A) (A) (A) (A) (A) (A)
                 (A) (A) (A) (A) (A) (A) (A) (A) (A) (A) (A) (A)
                 (A) (A) (A) (A) (A) (A) (A) (A) (A) (A) (A) (A)
                 (A) (A) (A) (A) (A) (A) (A) (A) (A) (A) (A) (A)
                 (A) (A) (A) (A) (A) (A) (A) (A) (A) (A) (A) (A)
                 (A) (A) (A) (A) (A) (A) (A) (A) (A) (A) (A) (A)
                 (A) (A) (A) (A) (A) (A) (A) (A) (A) (A) (A) (A)
                 (A) (A) (A) (A) (A) (A) (A) (A) (A) (A) (A) (A)
                 (A) (A) (A) (A) (A) (A) (A) (A) (A) (A) (A) (A)
                 (A) (A) (A) (A) (A) (A) (A) (A) (A) (A) (A) (A)
                 (A) (A) (A) (A) (A) (A) (A) (A) (A) (A) (A) (A)
                 (A) (A) (A) (A) (A) (A) (A) (A) (A) (A) (A) (A)
                 (A) (A) (A) (A) (A) (A) (A) (A) (A) (A) (A) (A)
                 (A) (A) (A) (A) (A) (A) (A) (A) (A) (A) (A) (A)
                 (A) (A) (A) (A) (A) (A) (A) (A) (A) (A) (A) (A)
                 (A) (A) (A) (A) (A) (A) (A) (A) (A) (A) (A) (A)
                 (A) (A) (A) (A) (A) (A) (A) (A) (A) (A) (A) (A)
                 (A) (A) (A) (A) (A) (A) (A) (A) (A) (A) (A) (A)
                 (A) (A) (A) (A) (A) (A) (A) (A) (A) (A) (A) (A)
                 (A) (A) (A) (A) (A) (A) (A) (A) (A) (A) (A) (A)
                 (A) (A) (A) (A) (A) (A) (A) (A) (A) (A) (A) (A)
                 (A) (A) (A) (A) (A) (A) (A) (A) (A) (A) (A) (A)
                 (A) (A) (A) (A) (A) (A) (A) (A) (A) (A) (A) (A)
                 (A) (A) (A) (A) (A) (A) (A) (A) (A) (A) (A) (A)
                 (A) (A) (A) (A) (A) (A) (A) (A) (A) (A) (A) (A)
                 (A) (A) (A) (A) (A) (A) (A) (A) (A) (A) (A) (A)
                 (A) (A) (A) (A) (A) (A) (A) (A) (A) (A) (A) (A)
                 (A) (A) (A) (A) (A) (A) (A) (A) (A) (A) (A) (A)
                 (A) (A) (A) (A) (A) (A) (A) (A) (A) (A) (A) (A)
                 (A) (A) (A) (A) (A) (A) (A) (A) (A) (A) (A) (A)
                 (A) (A) (A) (A) (A) (A) (A) (A) (A) (A) (A) (A)
                 (A) (A) (A) (A) (A) (A) (A) (A) (A) (A) (A) (A)
                 (A) (A) (A) (A) (A) (A) (A) (A) (A) (A) (A) (A)
                 (A) (A) (A) (A) (A) (A) (A) (A) (A) (A) (A) (A)
                 (A) (A) (A) (A) (A) (A) (A) (A) (A) (A) (A) (A)
                 (A) (A) (A) (A) (A) (A) (A) (A) (A) (A) (A) (A)
                 (A) (A) (A) (A) (A) (A) (A) (A) (A) (A) (A) (A)
                 (A) (A) (A) (A) (A) (A) (A) (A) (A) (A) (A) (A)
                 (A) (A) (A) (A) (A) (A) (A) (A) (A) (A) (A) (A)
                 (A) (A) (A) (A) (A) (A) (A) (A) (A) (A) (A) (A)
                 (A) (A) (A) (A) (A) (A) (A) (A) (A) (A) (A) (A)
                 (A) (A) (A) (A) (A) (A) (A) (A) (A) (A) (A) (A)
                 (A) (A) (A) (A) (A) (A) (A) (A) (A) (A) (A) (A)
                 (A) (A) (A) (A) (A) (A) (A) (A) (A) (A) (A) (A)
                 (A) (A) (A) (A) (A) (A) (A) (A) (A) (A) (A) (A)
                 (A) (A) (A) (A) (A) (A) (A) (A) (A) (A) (A) (A)
                 (A) (A) (A) (A) (A) (A) (A) (A) (A) (A) (A) (A)
                 (A) (A) (A) (A) (A) (A) (A) (A) (A) (A) (A) (A)
                 (A) (A) (A) (A) (A) (A) (A) (A) (A) (A) (A) (A)
                 (A) (A) (A) (A) (A) (A) (A) (A) (A) (A) (A) (A)
                 (A) (A) (A) (A) (A) (A) (A) (A) (A) (A) (A) (A)
                 (A) (A) (A) (A) (A) (A) (A) (A) (A) (A) (A) (A)
                 (A) (A) (A) (A) (A) (A) (A) (A) (A) (A) (A) (A)
                 (A) (A) (A) (A) (A) (A) (A) (A) (A) (A) (A) (A)
                 (A) (A) (A) (A) (A) (A) (A) (A) (A) (A) (A) (A)
                 (A) (A) (A) (A) (A) (A) (A) (A) (A) (A) (A) (A)
                 (A) (A) (A) (A) (A) (A) (A) (A) (A) (A) (A) (A)
                 (A) (A) (A) (A) (A) (A) (A) (A) (A) (A) (A) (A)
                 (A) (A) (A) (A) (A) (A) (A) (A) (A) (A) (A) (A)
                 (A) (A) (A) (A) (A) (A) (A) (A) (A) (A) (A) (A)
                 (A) (A) (A) (A) (A) (A) (A) (A) (A) (A) (A) (A)
                 (A) (A) (A) (A) (A) (A) (A) (A) (A) (A) (A) (A)
                 (A) (A) (A) (A) (A) (A) (A) (A) (A) (A) (A) (A)
                 (A) (A) (A) (A) (A) (A) (A) (A) (A) (A) (A) (A)
                 (A) (A) (A) (A) (A) (A) (A) (A) (A) (A) (A) (A)
                 (A) (A) (A) (A) (A) (A) (A) (A) (A) (A) (A) (A)
                 (A) (A) (A) (A) (A) (A) (A) (A) (A) (A) (A) (A)
                 (A) (A) (A) (A) (A) (A) (A) (A) (A) (A) (A) (A)
                 (A) (A) (A) (A) (A) (A) (A) (A) (A) (A) (A) (A)
                 (A) (A) (A) (A) (A) (A) (A) (A) (A) (A) (A) (A)
                 (A) (A) (A) (A) (A) (A) (A) (A) (A) (A) (A) (A)
                 (A) (A) (A) (A) (A) (A) (A) (A) (A) (A) (A) (A)
                 (A) (A) (A) (A) (A) (A) (A) (A) (A) (A) (A) (A)
                 (A) (A) (A) (A) (A) (A) (A) (A) (A) (A) (A) (A)
                 (A) (A) (A) (A) (A) (A) (A) (A) (A) (A) (A) (A)
                 (A) (A) (A) (A) (A) (A) (A) (A) (A) (A) (A) (A)
                 (A) (A) (A) (A) (A) (A) (A) (A) (A) (A) (A) (A)
                 (A) (A) (A) (A) (A) (A) (A) (A) (A) (A) (A) (A)
                 (A) (A) (A) (A) (A) (A) (A) (A) (A) (A) (A) (A)
                 (A) (A) (A) (A) (A) (A) (A) (A) (A) (A) (A) (A)
                 (A) (A) (A) (A) (A) (A) (A) (A) (A) (A) (A) (A)
                 (A) (A) (A) (A) (A) (A) (A) (A) (A) (A) (A) (A)
                 (A) (A) (A) (A) (A) (A) (A) (A) (A) (A) (A) (A)
                 (A) (A) (A) (A) (A) (A) (A) (A) (A) (A) (A) (A)
                 (A) (A) (A) (A) (A) (A) (A) (A) (A) (A) (A) (A)
                 (A) (A) (A) (A) (A) (A) (A) (A) (A) (A) (A) (A)
                 (A) (A) (A) (A) (A) (A) (A) (A) (A) (A) (A) (A)
                 (A) (A) (A) (A) (A) (A) (A) (A) (A) (A) (A) (A)
                 (A) (A)
 The electronic state is 2-A.
 Alpha  occ. eigenvalues --  -67.01517 -25.18828 -25.18796 -19.65948 -19.63199
 Alpha  occ. eigenvalues --  -19.59665 -14.75936 -14.75414 -10.61152 -10.60948
 Alpha  occ. eigenvalues --  -10.60456 -10.57369 -10.56683 -10.56547 -10.55517
 Alpha  occ. eigenvalues --  -10.55334 -10.55276 -10.55118 -10.54955 -10.54897
 Alpha  occ. eigenvalues --  -10.54878 -10.54746 -10.54726 -10.54630 -10.54489
 Alpha  occ. eigenvalues --  -10.54475 -10.54393 -10.54263 -10.53818 -10.53719
 Alpha  occ. eigenvalues --  -10.53492 -10.53261 -10.53171 -10.52871 -10.52855
 Alpha  occ. eigenvalues --  -10.52785 -10.52738 -10.52700 -10.52662 -10.52650
 Alpha  occ. eigenvalues --  -10.52619 -10.52615 -10.52553 -10.52468 -10.52412
 Alpha  occ. eigenvalues --  -10.52273 -10.52088  -7.10961  -5.55048  -3.86256
 Alpha  occ. eigenvalues --   -3.86036  -3.86016  -1.30560  -1.27301  -1.18454
 Alpha  occ. eigenvalues --   -1.14824  -1.12765  -1.07800  -1.05762  -0.96602
 Alpha  occ. eigenvalues --   -0.96212  -0.91133  -0.90348  -0.89766  -0.88936
 Alpha  occ. eigenvalues --   -0.88479  -0.87011  -0.86921  -0.85497  -0.84965
 Alpha  occ. eigenvalues --   -0.84758  -0.84349  -0.83638  -0.82314  -0.79886
 Alpha  occ. eigenvalues --   -0.79051  -0.77786  -0.77454  -0.77177  -0.76811
 Alpha  occ. eigenvalues --   -0.75335  -0.72076  -0.71809  -0.71211  -0.70358
 Alpha  occ. eigenvalues --   -0.69651  -0.68927  -0.68391  -0.66644  -0.65799
 Alpha  occ. eigenvalues --   -0.65005  -0.64795  -0.63746  -0.62788  -0.62316
[...]
              Bcc     0.0244    12.243     4.369     4.084 -0.4717  0.8739  0.1177
 
              Baa    -0.0158    -7.953    -2.838    -2.653 -0.5555  0.3200  0.7675
    37 F(19)  Bbb    -0.0137    -6.865    -2.450    -2.290  0.8257  0.1030  0.5547
              Bcc     0.0295    14.818     5.287     4.943  0.0985  0.9418 -0.3214
 
              Baa    -0.1251    -4.825    -1.722    -1.609  0.8965  0.1216  0.4260
    38 N(14)  Bbb    -0.1140    -4.398    -1.569    -1.467 -0.1435  0.9895  0.0195
              Bcc     0.2391     9.222     3.291     3.076 -0.4192 -0.0786  0.9045
 
              Baa    -0.0751   -10.073    -3.594    -3.360  0.9027 -0.2074  0.3770
    39 C(13)  Bbb    -0.0641    -8.603    -3.070    -2.870  0.1627  0.9756  0.1472
              Bcc     0.1392    18.676     6.664     6.230 -0.3983 -0.0715  0.9145
 
              Baa    -0.0266    -3.564    -1.272    -1.189  0.8566 -0.4786  0.1928
    40 C(13)  Bbb    -0.0113    -1.513    -0.540    -0.505  0.4276  0.8676  0.2539
              Bcc     0.0378     5.077     1.812     1.694 -0.2888 -0.1351  0.9478
 
              Baa    -0.2696    19.507     6.960     6.507  0.6484  0.7137  0.2650
    41 O(17)  Bbb    -0.2509    18.153     6.477     6.055  0.6996 -0.6958  0.1623
              Bcc     0.5204   -37.659   -13.438   -12.562 -0.3002 -0.0801  0.9505
 
              Baa    -0.0085    -1.142    -0.407    -0.381  0.9268  0.3126  0.2081
    42 C(13)  Bbb     0.0034     0.460     0.164     0.154 -0.2969  0.9493 -0.1036
              Bcc     0.0051     0.682     0.243     0.227 -0.2299  0.0343  0.9726
 
              Baa    -0.0108    -1.451    -0.518    -0.484 -0.5101  0.4808  0.7132
    43 C(13)  Bbb    -0.0076    -1.016    -0.363    -0.339  0.7414  0.6661  0.0813
              Bcc     0.0184     2.467     0.880     0.823  0.4360 -0.5702  0.6962
 
              Baa    -0.0045    -0.600    -0.214    -0.200  0.8906  0.4159  0.1840
    44 C(13)  Bbb    -0.0013    -0.168    -0.060    -0.056 -0.2904  0.2089  0.9338
              Bcc     0.0057     0.768     0.274     0.256 -0.3500  0.8851 -0.3068
 
              Baa    -0.0031    -0.411    -0.147    -0.137 -0.2295  0.0349  0.9727
    45 C(13)  Bbb    -0.0004    -0.049    -0.017    -0.016 -0.2692  0.9581 -0.0979
              Bcc     0.0034     0.460     0.164     0.153  0.9353  0.2843  0.2105
 
              Baa    -0.0024     0.170     0.061     0.057 -0.4066 -0.2031  0.8907
    46 O(17)  Bbb    -0.0016     0.116     0.041     0.039 -0.3448  0.9370  0.0562
              Bcc     0.0040    -0.286    -0.102    -0.095  0.8460  0.2842  0.4510
 
              Baa    -0.0047    -0.631    -0.225    -0.211  0.9008  0.3691  0.2287
    47 C(13)  Bbb    -0.0010    -0.129    -0.046    -0.043 -0.1894 -0.1397  0.9719
              Bcc     0.0057     0.761     0.271     0.254 -0.3907  0.9188  0.0559
 
              Baa    -0.0104    -1.400    -0.500    -0.467 -0.2532 -0.5472  0.7978
    48 C(13)  Bbb    -0.0068    -0.917    -0.327    -0.306  0.9659 -0.0972  0.2399
              Bcc     0.0173     2.317     0.827     0.773 -0.0537  0.8314  0.5531
 
              Baa    -0.0006    -0.341    -0.122    -0.114 -0.0751 -0.0762  0.9943
    49 H(1)   Bbb    -0.0002    -0.111    -0.040    -0.037  0.2130  0.9728  0.0907
              Bcc     0.0008     0.451     0.161     0.151  0.9742 -0.2186  0.0568
 
              Baa    -0.0022    -1.158    -0.413    -0.386  0.1022 -0.5568  0.8243
    50 H(1)   Bbb    -0.0005    -0.248    -0.089    -0.083  0.2106  0.8220  0.5291
              Bcc     0.0026     1.407     0.502     0.469  0.9722 -0.1195 -0.2013
 
              Baa    -0.0011    -0.599    -0.214    -0.200 -0.0717  0.1606  0.9844
    51 H(1)   Bbb    -0.0001    -0.031    -0.011    -0.010 -0.1199  0.9784 -0.1684
              Bcc     0.0012     0.629     0.224     0.210  0.9902  0.1301  0.0509
 
              Baa    -0.0019    -1.017    -0.363    -0.339 -0.4367  0.3068  0.8457
    52 H(1)   Bbb    -0.0009    -0.493    -0.176    -0.164  0.4612  0.8835 -0.0824
              Bcc     0.0028     1.510     0.539     0.504  0.7724 -0.3540  0.5273
 
              Baa    -0.0010    -0.529    -0.189    -0.177 -0.4682  0.0153  0.8835
    53 H(1)   Bbb    -0.0001    -0.068    -0.024    -0.023 -0.2471  0.9577 -0.1475
              Bcc     0.0011     0.597     0.213     0.199  0.8484  0.2873  0.4446
 
              Baa    -0.0014    -0.745    -0.266    -0.249 -0.4191 -0.4635  0.7807
    54 H(1)   Bbb    -0.0012    -0.635    -0.227    -0.212  0.0838  0.8364  0.5416
              Bcc     0.0026     1.380     0.493     0.460  0.9041 -0.2924  0.3117
 
              Baa    -0.0023    -1.222    -0.436    -0.407 -0.2370 -0.3291  0.9140
    55 H(1)   Bbb    -0.0007    -0.382    -0.136    -0.127  0.3858  0.8316  0.3995
              Bcc     0.0030     1.603     0.572     0.535  0.8916 -0.4474  0.0701
 
              Baa    -0.0020    -1.072    -0.383    -0.358 -0.5100  0.2705  0.8165
    56 H(1)   Bbb    -0.0008    -0.407    -0.145    -0.136  0.5602  0.8248  0.0767
              Bcc     0.0028     1.480     0.528     0.494  0.6527 -0.4965  0.5722
 
              Baa    -0.0031    -1.668    -0.595    -0.556 -0.4689  0.2883  0.8349
    57 H(1)   Bbb    -0.0007    -0.381    -0.136    -0.127  0.8595 -0.0685  0.5064
              Bcc     0.0038     2.049     0.731     0.683  0.2032  0.9551 -0.2157
 
              Baa    -0.0027    -1.416    -0.505    -0.472 -0.1448 -0.4178  0.8969
    58 H(1)   Bbb    -0.0014    -0.731    -0.261    -0.244  0.9894 -0.0520  0.1356
              Bcc     0.0040     2.148     0.766     0.716 -0.0100  0.9071  0.4209
 
              Baa    -0.0021    -1.133    -0.404    -0.378  0.7570 -0.4066 -0.5114
    59 H(1)   Bbb    -0.0018    -0.943    -0.336    -0.314  0.3435 -0.4180  0.8410
              Bcc     0.0039     2.075     0.741     0.692  0.5558  0.8123  0.1768
 
              Baa    -0.0016    -0.869    -0.310    -0.290 -0.2893 -0.3330  0.8974
    60 H(1)   Bbb    -0.0009    -0.496    -0.177    -0.166 -0.4522  0.8738  0.1785
              Bcc     0.0026     1.365     0.487     0.455  0.8437  0.3542  0.4034
 
              Baa    -0.0014    -0.735    -0.262    -0.245 -0.2177 -0.1905  0.9572
    61 H(1)   Bbb    -0.0005    -0.252    -0.090    -0.084 -0.3901  0.9160  0.0936
              Bcc     0.0018     0.987     0.352     0.329  0.8947  0.3530  0.2737
 
              Baa    -0.0013    -0.696    -0.249    -0.232  0.8161 -0.1540 -0.5570
    62 H(1)   Bbb    -0.0009    -0.466    -0.166    -0.155 -0.1051  0.9082 -0.4051
              Bcc     0.0022     1.162     0.415     0.388  0.5683  0.3892  0.7250
 
              Baa    -0.0013    -0.703    -0.251    -0.234  0.6599  0.4925 -0.5675
    63 H(1)   Bbb    -0.0006    -0.301    -0.107    -0.100 -0.5739  0.8178  0.0424
              Bcc     0.0019     1.004     0.358     0.335  0.4850  0.2977  0.8223
 
              Baa    -0.0007    -0.349    -0.125    -0.117 -0.5951 -0.2774  0.7542
    64 H(1)   Bbb    -0.0003    -0.152    -0.054    -0.051 -0.4800  0.8754 -0.0568
              Bcc     0.0009     0.502     0.179     0.167  0.6445  0.3958  0.6541
 
              Baa    -0.0026    -1.402    -0.500    -0.468  0.3681  0.5615  0.7411
    65 H(1)   Bbb    -0.0020    -1.050    -0.375    -0.350  0.7845  0.2404 -0.5717
              Bcc     0.0046     2.451     0.875     0.818 -0.4991  0.7918 -0.3520
 
              Baa    -0.0056    -3.008    -1.073    -1.003  0.8997  0.0147 -0.4362
    66 H(1)   Bbb    -0.0011    -0.575    -0.205    -0.192  0.3534  0.5618  0.7480
              Bcc     0.0067     3.583     1.279     1.195 -0.2560  0.8272 -0.5002
 
              Baa    -0.0030    -1.575    -0.562    -0.525  0.1445  0.9036  0.4033
    67 H(1)   Bbb    -0.0014    -0.751    -0.268    -0.250  0.1615 -0.4236  0.8913
              Bcc     0.0044     2.326     0.830     0.776  0.9762 -0.0637 -0.2072
 
              Baa    -0.0007    -0.392    -0.140    -0.131  0.2085  0.7092  0.6734
    68 H(1)   Bbb    -0.0005    -0.253    -0.090    -0.084 -0.2807  0.7030 -0.6535
              Bcc     0.0012     0.645     0.230     0.215  0.9369  0.0528 -0.3457
 
              Baa    -0.0001    -0.070    -0.025    -0.023  0.2365  0.5022  0.8318
    69 H(1)   Bbb    -0.0001    -0.058    -0.021    -0.019 -0.4352  0.8201 -0.3715
              Bcc     0.0002     0.128     0.046     0.043  0.8687  0.2741 -0.4125
 
              Baa    -0.0001    -0.047    -0.017    -0.016  0.1213  0.1488  0.9814
    70 H(1)   Bbb    -0.0001    -0.042    -0.015    -0.014 -0.3321  0.9378 -0.1012
              Bcc     0.0002     0.090     0.032     0.030  0.9354  0.3136 -0.1632
 
              Baa    -0.0001    -0.050    -0.018    -0.017  0.1351  0.3067  0.9422
    71 H(1)   Bbb    -0.0001    -0.042    -0.015    -0.014 -0.4610  0.8611 -0.2142
              Bcc     0.0002     0.091     0.033     0.030  0.8771  0.4054 -0.2577
 
              Baa    -0.0001    -0.062    -0.022    -0.021  0.1343 -0.0439  0.9900
    72 H(1)   Bbb    -0.0001    -0.050    -0.018    -0.017 -0.4114  0.9064  0.0960
              Bcc     0.0002     0.112     0.040     0.037  0.9015  0.4202 -0.1036
 
              Baa    -0.0003    -0.138    -0.049    -0.046  0.2082  0.5897  0.7803
    73 H(1)   Bbb    -0.0001    -0.060    -0.021    -0.020 -0.5322  0.7377 -0.4154
              Bcc     0.0004     0.198     0.071     0.066  0.8206  0.3288 -0.4674
 
              Baa    -0.0002    -0.130    -0.046    -0.043  0.1687  0.2290  0.9587
    74 H(1)   Bbb    -0.0001    -0.070    -0.025    -0.023 -0.4752  0.8710 -0.1245
              Bcc     0.0004     0.201     0.072     0.067  0.8636  0.4346 -0.2557
 
              Baa    -0.0002    -0.086    -0.031    -0.029  0.1827  0.4665  0.8654
    75 H(1)   Bbb    -0.0001    -0.060    -0.022    -0.020 -0.5449  0.7808 -0.3058
              Bcc     0.0003     0.146     0.052     0.049  0.8184  0.4157 -0.3969
 
              Baa    -0.0001    -0.075    -0.027    -0.025  0.3145 -0.2051  0.9269
    76 H(1)   Bbb    -0.0001    -0.073    -0.026    -0.024  0.1380  0.9759  0.1691
              Bcc     0.0003     0.148     0.053     0.049  0.9392 -0.0748 -0.3352
 
              Baa    -0.0001    -0.036    -0.013    -0.012  0.2033  0.3743  0.9048
    77 H(1)   Bbb    -0.0001    -0.035    -0.012    -0.012 -0.0534  0.9269 -0.3714
              Bcc     0.0001     0.070     0.025     0.024  0.9777 -0.0272 -0.2084
 
              Baa    -0.0001    -0.042    -0.015    -0.014  0.2366  0.1393  0.9616
    78 H(1)   Bbb    -0.0001    -0.040    -0.014    -0.013 -0.1463  0.9835 -0.1065
              Bcc     0.0002     0.082     0.029     0.027  0.9605  0.1155 -0.2531
 
              Baa    -0.0001    -0.041    -0.015    -0.014  0.0761  0.2074  0.9753
    79 H(1)   Bbb    -0.0001    -0.039    -0.014    -0.013 -0.0906  0.9755 -0.2003
              Bcc     0.0001     0.080     0.029     0.027  0.9930  0.0731 -0.0930
 
              Baa    -0.0002    -0.091    -0.032    -0.030  0.2154  0.5077  0.8342
    80 H(1)   Bbb    -0.0001    -0.075    -0.027    -0.025  0.2048  0.8117 -0.5469
              Bcc     0.0003     0.166     0.059     0.055  0.9548 -0.2887 -0.0709
 
              Baa    -0.0001    -0.049    -0.018    -0.016  0.1903  0.2860  0.9392
    81 H(1)   Bbb    -0.0001    -0.047    -0.017    -0.016  0.1725  0.9320 -0.3187
              Bcc     0.0002     0.096     0.034     0.032  0.9665 -0.2226 -0.1280
 
              Baa    -0.0001    -0.060    -0.021    -0.020  0.0727  0.6994  0.7110
    82 H(1)   Bbb    -0.0001    -0.056    -0.020    -0.019 -0.1144 -0.7024  0.7026
              Bcc     0.0002     0.116     0.042     0.039  0.9908 -0.1324  0.0289
 
              Baa    -0.0002    -0.132    -0.047    -0.044 -0.0352  0.9885 -0.1471
    83 H(1)   Bbb    -0.0002    -0.093    -0.033    -0.031 -0.2463  0.1341  0.9599
              Bcc     0.0004     0.225     0.080     0.075  0.9686  0.0700  0.2387
 
              Baa    -0.0004    -0.212    -0.076    -0.071  0.0846 -0.4426  0.8927
    84 H(1)   Bbb    -0.0002    -0.091    -0.032    -0.030 -0.4252  0.7942  0.4341
              Bcc     0.0006     0.303     0.108     0.101  0.9011  0.4163  0.1211
 
              Baa    -0.0002    -0.110    -0.039    -0.037  0.0031 -0.6398  0.7685
    85 H(1)   Bbb    -0.0002    -0.090    -0.032    -0.030 -0.4330  0.6919  0.5778
              Bcc     0.0004     0.200     0.071     0.067  0.9014  0.3345  0.2749
 
              Baa    -0.0002    -0.106    -0.038    -0.035  0.0050 -0.1768  0.9842
    86 H(1)   Bbb    -0.0001    -0.074    -0.026    -0.025 -0.4408  0.8831  0.1609
              Bcc     0.0003     0.180     0.064     0.060  0.8976  0.4347  0.0735
 
              Baa    -0.0001    -0.052    -0.018    -0.017 -0.0815  0.9720 -0.2205
    87 H(1)   Bbb    -0.0001    -0.051    -0.018    -0.017 -0.1368  0.2082  0.9685
              Bcc     0.0002     0.102     0.036     0.034  0.9872  0.1091  0.1160
 
              Baa    -0.0001    -0.054    -0.019    -0.018  0.0549 -0.4714  0.8802
    88 H(1)   Bbb    -0.0001    -0.049    -0.017    -0.016 -0.2812  0.8386  0.4667
              Bcc     0.0002     0.103     0.037     0.034  0.9581  0.2731  0.0866
 
              Baa    -0.0001    -0.058    -0.021    -0.019 -0.1037 -0.5212  0.8471
    89 H(1)   Bbb    -0.0001    -0.054    -0.019    -0.018 -0.2878  0.8310  0.4761
              Bcc     0.0002     0.112     0.040     0.037  0.9521  0.1944  0.2361
 
              Baa    -0.0005    -0.254    -0.091    -0.085  0.1732  0.7268  0.6647
    90 H(1)   Bbb     0.0001     0.043     0.015     0.014 -0.3919  0.6700 -0.6304
              Bcc     0.0004     0.211     0.075     0.071  0.9035  0.1513 -0.4009
 
              Baa    -0.0009    -0.467    -0.167    -0.156  0.1025  0.5733  0.8129
    91 H(1)   Bbb    -0.0005    -0.279    -0.100    -0.093  0.8574  0.3635 -0.3644
              Bcc     0.0014     0.746     0.266     0.249 -0.5044  0.7343 -0.4543
 
              Baa    -0.0036    -1.914    -0.683    -0.639 -0.1886  0.0202  0.9819
    92 H(1)   Bbb    -0.0026    -1.395    -0.498    -0.465  0.6361  0.7643  0.1064
              Bcc     0.0062     3.310     1.181     1.104  0.7483 -0.6446  0.1570
 
              Baa    -0.0036    -1.934    -0.690    -0.645  0.9943  0.0989  0.0406
    93 H(1)   Bbb    -0.0018    -0.945    -0.337    -0.315 -0.1061  0.8625  0.4948
              Bcc     0.0054     2.879     1.027     0.960  0.0139 -0.4962  0.8681
 
              Baa    -0.0008    -0.450    -0.161    -0.150  0.8063  0.4284  0.4080
    94 H(1)   Bbb    -0.0006    -0.337    -0.120    -0.112 -0.5631  0.3443  0.7513
              Bcc     0.0015     0.787     0.281     0.263 -0.1813  0.8354 -0.5188
 
              Baa    -0.0004    -0.227    -0.081    -0.076  0.8532  0.3135  0.4168
    95 H(1)   Bbb    -0.0003    -0.169    -0.060    -0.056 -0.3315 -0.2908  0.8975
              Bcc     0.0007     0.396     0.141     0.132 -0.4026  0.9039  0.1442
 
              Baa    -0.0008    -0.435    -0.155    -0.145  0.9057  0.3683  0.2097
    96 H(1)   Bbb    -0.0007    -0.360    -0.129    -0.120 -0.0773 -0.3430  0.9362
              Bcc     0.0015     0.795     0.284     0.265 -0.4167  0.8641  0.2822
 
              Baa    -0.0033    -1.770    -0.632    -0.590  0.8731  0.4857  0.0432
    97 H(1)   Bbb    -0.0019    -1.039    -0.371    -0.347  0.3282 -0.6509  0.6846
              Bcc     0.0053     2.809     1.002     0.937 -0.3606  0.5835  0.7276
 

 ---------------------------------------------------------------------------------

 No NMR shielding tensors so no spin-rotation constants.
 Leave Link  601 at Thu Nov  6 10:04:09 2025, MaxMem= 30870077440 cpu:             241.3 elap:               4.3
 (Enter /public/software/gauss/g16/l9999.exe)
 1\1\GINC-CU015\SP\UM062X\def2TZVPP\C39H49B1F2N2O3Si1(1-,2)\BAIDING\06-
 Nov-2025\0\\#p M062X/DEF2TZVPP scrf=(solvent=water) em=GD3\\Energy cal
 culation for M100033051_reduced\\-1,2\C,0,-8.731552,-2.616266,-0.66399
 4\C,0,-7.731615,-2.133025,-1.728336\C,0,-6.436588,-1.631894,-1.146198\
 C,0,-6.086563,-0.302419,-0.906941\C,0,-6.969545,0.883509,-1.177136\C,0
 ,-4.757958,-0.30514,-0.351297\C,0,-3.921674,0.765234,0.075707\C,0,-2.6
 55025,0.480196,0.652591\C,0,-1.604152,1.332583,1.111023\C,0,-1.551952,
 2.834646,1.119482\C,0,-0.566362,0.499635,1.574487\C,0,0.683064,0.95773
 4,2.280474\C,0,0.418437,1.48357,3.702409\C,0,-0.970909,-0.838113,1.376
 651\C,0,-0.341932,-2.091384,1.773339\C,0,0.93621,-2.531247,1.650268\C,
 0,2.092611,-2.0025,0.917861\C,0,2.013152,-1.037911,-0.10879\C,0,3.1440
 33,-0.624885,-0.804172\C,0,4.404318,-1.158862,-0.495199\O,0,5.491956,-
 0.769349,-1.231313\Si,0,6.917594,0.097634,-0.825526\C,0,6.8978,1.64694
 5,-1.946964\C,0,7.856767,2.76058,-1.479283\C,0,5.490335,2.223614,-2.18
 9012\C,0,8.305677,-1.084272,-1.386682\C,0,9.681531,-0.425593,-1.599305
 \C,0,8.426725,-2.334702,-0.496679\C,0,6.898293,0.440952,1.051514\C,0,5
 .804874,1.438267,1.482905\C,0,8.268657,0.863625,1.617993\C,0,4.504647,
 -2.135067,0.504591\C,0,3.364431,-2.545365,1.19101\N,0,-2.244074,-0.835
 829,0.838349\B,0,-3.034469,-2.085096,0.427276\F,0,-2.276632,-2.887858,
 -0.455452\F,0,-3.342487,-2.874567,1.563788\N,0,-4.333309,-1.613808,-0.
 254989\C,0,-5.34359,-2.445648,-0.734841\C,0,-5.189955,-3.860333,-0.808
 327\O,0,-6.075257,-4.673435,-1.171539\C,0,-4.365344,2.181713,-0.085276
 \C,0,-4.258873,2.837092,-1.322837\C,0,-4.660417,4.162042,-1.48026\C,0,
 -5.185815,4.860789,-0.387856\O,0,-5.570218,6.166087,-0.5923\C,0,-5.303
 679,4.228781,0.854359\C,0,-4.892573,2.903179,0.996152\H,0,-9.660256,-2
 .960401,-1.132112\H,0,-8.315142,-3.448769,-0.088882\H,0,-8.983251,-1.8
 12652,0.036084\H,0,-7.523291,-2.958577,-2.415622\H,0,-8.196723,-1.3393
 92,-2.321853\H,0,-7.979843,0.555725,-1.434219\H,0,-7.049417,1.541249,-
 0.306904\H,0,-6.603704,1.500768,-2.005067\H,0,-1.879965,3.264057,0.168
 984\H,0,-2.184512,3.276387,1.898748\H,0,-0.528647,3.175644,1.299956\H,
 0,1.39518,0.132659,2.34078\H,0,1.177633,1.743675,1.694835\H,0,-0.26283
 8,2.340277,3.697358\H,0,-0.031209,0.704402,4.327418\H,0,1.352407,1.800
 744,4.1796\H,0,-1.030919,-2.791256,2.243489\H,0,1.142972,-3.481915,2.1
 40477\H,0,1.05101,-0.6137,-0.372917\H,0,3.063003,0.111967,-1.597084\H,
 0,7.269953,1.280904,-2.916665\H,0,8.879233,2.403168,-1.322151\H,0,7.90
 3483,3.563352,-2.226539\H,0,7.516285,3.213137,-0.541621\H,0,4.813302,1
 .484638,-2.62697\H,0,5.03333,2.584583,-1.260711\H,0,5.539282,3.076546,
 -2.878532\H,0,7.953762,-1.419411,-2.375517\H,0,10.397773,-1.156653,-1.
 996435\H,0,9.636671,0.404646,-2.311216\H,0,10.101146,-0.040152,-0.6635
 91\H,0,7.474652,-2.867692,-0.403859\H,0,9.156168,-3.040274,-0.915159\H
 ,0,8.766312,-2.080322,0.514002\H,0,6.65126,-0.530682,1.503651\H,0,4.80
 731,1.139011,1.145503\H,0,5.769803,1.517591,2.577331\H,0,6.000329,2.44
 2763,1.092217\H,0,9.047692,0.121823,1.417503\H,0,8.605716,1.820565,1.2
 05845\H,0,8.206347,0.985997,2.70719\H,0,5.469627,-2.576254,0.731615\H,
 0,3.457164,-3.310648,1.957411\H,0,-4.195493,-4.245549,-0.531515\H,0,-3
 .850868,2.302299,-2.175597\H,0,-4.571487,4.663187,-2.439074\H,0,-5.914
 701,6.528832,0.238072\H,0,-5.71445,4.774136,1.700241\H,0,-4.987104,2.4
 20665,1.964592\\Version=ES64L-G16RevA.03\State=2-A\HF=-2365.2215294\S2
 =0.792032\S2-1=0.\S2A=0.751147\RMSD=2.573e-09\Dipole=7.7481316,6.71627
 9,0.9923236\Quadrupole=-16.0571163,-9.2305705,25.2876868,-58.0097045,-
 8.9964641,-0.9312899\PG=C01 [X(C39H49B1F2N2O3Si1)]\\@


 MATERIAL COPIED FROM ONE SCHOLARLY BOOK WITHOUT CREDIT COMPRISES PLAGIARISM.
 MATERIAL COPIED FROM TWO SCHOLARLY BOOKS COMPRISES AN ESSAY.
 MATERIAL COPIED FROM THREE SCHOLARLY BOOKS COMPRISES A DISSERTATION.
 MATERIAL COPIED FROM FOUR SCHOLARLY BOOKS COMPRISES A FIFTH SCHOLARLY BOOK.

                               -- C&EN, 25 FEB 1980
 Job cpu time:       2 days  3 hours  1 minutes 30.7 seconds.
 Elapsed time:       0 days  0 hours 48 minutes 23.4 seconds.
 File lengths (MBytes):  RWF=   5042 Int=      0 D2E=      0 Chk=    332 Scr=      1
 Normal termination of Gaussian 16 at Thu Nov  6 10:04:10 2025.
