 Entering Gaussian System, Link 0=g16
 Input=M100034833_reduced_sp.gjf
 Output=M100034833_reduced_sp.log
 Initial command:
 /public/software/gauss/g16/l1.exe "/public/home/baiding/1101_v2_sp/tmp_M100034833_reduced_sp_1568608/Gau-4186930.inp" -scrdir="/public/home/baiding/1101_v2_sp/tmp_M100034833_reduced_sp_1568608/"
 Entering Link 1 = /public/software/gauss/g16/l1.exe PID=   4186931.
  
 Copyright (c) 1988,1990,1992,1993,1995,1998,2003,2009,2016,
            Gaussian, Inc.  All Rights Reserved.
  
 This is part of the Gaussian(R) 16 program.  It is based on
 the Gaussian(R) 09 system (copyright 2009, Gaussian, Inc.),
 the Gaussian(R) 03 system (copyright 2003, Gaussian, Inc.),
 the Gaussian(R) 98 system (copyright 1998, Gaussian, Inc.),
 the Gaussian(R) 94 system (copyright 1995, Gaussian, Inc.),
 the Gaussian 92(TM) system (copyright 1992, Gaussian, Inc.),
 the Gaussian 90(TM) system (copyright 1990, Gaussian, Inc.),
 the Gaussian 88(TM) system (copyright 1988, Gaussian, Inc.),
 the Gaussian 86(TM) system (copyright 1986, Carnegie Mellon
 University), and the Gaussian 82(TM) system (copyright 1983,
 Carnegie Mellon University). Gaussian is a federally registered
 trademark of Gaussian, Inc.
  
 This software contains proprietary and confidential information,
 including trade secrets, belonging to Gaussian, Inc.
  
 This software is provided under written license and may be
 used, copied, transmitted, or stored only in accord with that
 written license.
  
 The following legend is applicable only to US Government
 contracts under FAR:
  
                    RESTRICTED RIGHTS LEGEND
  
 Use, reproduction and disclosure by the US Government is
 subject to restrictions as set forth in subparagraphs (a)
 and (c) of the Commercial Computer Software - Restricted
 Rights clause in FAR 52.227-19.
  
 Gaussian, Inc.
 340 Quinnipiac St., Bldg. 40, Wallingford CT 06492
  
  
 ---------------------------------------------------------------
 Warning -- This program may not be used in any manner that
 competes with the business of Gaussian, Inc. or will provide
 assistance to any competitor of Gaussian, Inc.  The licensee
 of this program is prohibited from giving any competitor of
 Gaussian, Inc. access to this program.  By using this program,
 the user acknowledges that Gaussian, Inc. is engaged in the
 business of creating and licensing software in the field of
 computational chemistry and represents and warrants to the
 licensee that it is not a competitor of Gaussian, Inc. and that
 it will not use this program in any manner prohibited above.
 ---------------------------------------------------------------
  

 Cite this work as:
 Gaussian 16, Revision A.03,
 M. J. Frisch, G. W. Trucks, H. B. Schlegel, G. E. Scuseria, 
 M. A. Robb, J. R. Cheeseman, G. Scalmani, V. Barone, 
 G. A. Petersson, H. Nakatsuji, X. Li, M. Caricato, A. V. Marenich, 
 J. Bloino, B. G. Janesko, R. Gomperts, B. Mennucci, H. P. Hratchian, 
 J. V. Ortiz, A. F. Izmaylov, J. L. Sonnenberg, D. Williams-Young, 
 F. Ding, F. Lipparini, F. Egidi, J. Goings, B. Peng, A. Petrone, 
 T. Henderson, D. Ranasinghe, V. G. Zakrzewski, J. Gao, N. Rega, 
 G. Zheng, W. Liang, M. Hada, M. Ehara, K. Toyota, R. Fukuda, 
 J. Hasegawa, M. Ishida, T. Nakajima, Y. Honda, O. Kitao, H. Nakai, 
 T. Vreven, K. Throssell, J. A. Montgomery, Jr., J. E. Peralta, 
 F. Ogliaro, M. J. Bearpark, J. J. Heyd, E. N. Brothers, K. N. Kudin, 
 V. N. Staroverov, T. A. Keith, R. Kobayashi, J. Normand, 
 K. Raghavachari, A. P. Rendell, J. C. Burant, S. S. Iyengar, 
 J. Tomasi, M. Cossi, J. M. Millam, M. Klene, C. Adamo, R. Cammi, 
 J. W. Ochterski, R. L. Martin, K. Morokuma, O. Farkas, 
 J. B. Foresman, and D. J. Fox, Gaussian, Inc., Wallingford CT, 2016.
 
 ******************************************
 Gaussian 16:  ES64L-G16RevA.03 25-Dec-2016
                 7-Nov-2025 
 ******************************************
 %nprocshared=64
 Will use up to   64 processors via shared memory.
 %mem=230GB
 %chk=M100034833_reduced_sp.chk
 ----------------------------------------------
 #p M062X/DEF2TZVPP scrf=(solvent=water) em=GD3
 ----------------------------------------------
 1/38=1,172=1/1;
 2/12=2,17=6,18=5,40=1/2;
 3/5=44,7=202,11=2,25=1,30=1,70=2201,72=1,74=-55,124=31/1,2,3;
 4//1;
 5/5=2,38=5,53=1/2;
 6/7=2,8=2,9=2,10=2,28=1/1;
 99/5=1,9=1/99;
 Leave Link    1 at Fri Nov  7 00:13:06 2025, MaxMem= 30870077440 cpu:              14.3 elap:               0.2
 (Enter /public/software/gauss/g16/l101.exe)
 -----------------------------------------
 Energy calculation for M100034833_reduced
 -----------------------------------------
 Symbolic Z-matrix:
 Charge = -1 Multiplicity = 2
 O                    -0.14668   7.94656   0.38659 
 N                     0.6406    7.18651  -0.25523 
 O                     1.54612   7.66565  -1.00377 
 C                     0.50792   5.79178  -0.13532 
 C                    -0.47089   5.24634   0.72199 
 C                    -0.60471   3.8776    0.82612 
 C                     0.23582   2.98624   0.10338 
 C                     0.10232   1.54294   0.21609 
 C                    -1.18019   0.92194   0.29412 
 C                    -2.48445   1.45686   0.24677 
 C                    -3.38972   0.39845   0.37384 
 C                    -2.62791  -0.77139   0.45974 
 S                    -3.17342  -2.45299   0.65679 
 C                    -4.85834  -2.34156   0.14287 
 C                    -5.9683   -2.3011    0.95124 
 C                    -7.19274  -2.30104   0.2204 
 C                    -7.00352  -2.34361  -1.13481 
 S                    -5.3219   -2.39742  -1.5497 
 N                    -1.29785  -0.468     0.41113 
 B                    -0.14637  -1.46778   0.14622 
 F                    -0.25577  -2.00385  -1.14425 
 F                    -0.18859  -2.51101   1.08719 
 N                     1.16944  -0.67383   0.30211 
 C                     2.42345  -1.1791    0.48672 
 S                     2.70124  -2.93081   0.63174 
 C                     4.4106   -3.04976   0.20604 
 C                     5.46073  -3.26047   1.06619 
 C                     6.71199  -3.40471   0.39717 
 C                     6.60253  -3.30355  -0.96355 
 S                     4.96257  -3.04412  -1.46092 
 C                     3.34869  -0.13357   0.58612 
 C                     2.62492   1.0553    0.45789 
 C                     1.26676   0.71912   0.27735 
 C                     1.22363   3.56784  -0.73908 
 C                     1.35489   4.93468  -0.86933 
 H                    -1.09522   5.90912   1.30736 
 H                    -1.33204   3.47647   1.52151 
 H                    -2.74001   2.49912   0.13251 
 H                    -4.46769   0.45597   0.405 
 H                    -5.90566  -2.27022   2.03285 
 H                    -8.17182  -2.26592   0.68392 
 H                    -7.75287  -2.34429  -1.91597 
 H                     5.33735  -3.30744   2.14197 
 H                     7.65339  -3.57028   0.90818 
 H                     7.38866  -3.36284  -1.70522 
 H                     4.41018  -0.24372   0.75247 
 H                     3.0235    2.05622   0.52955 
 H                     1.85758   2.92188  -1.33512 
 H                     2.08831   5.35792  -1.54358 
 
 ITRead=  0  0  0  0  0  0  0  0  0  0  0  0  0  0  0  0  0  0  0  0
 ITRead=  0  0  0  0  0  0  0  0  0  0  0  0  0  0  0  0  0  0  0  0
 ITRead=  0  0  0  0  0  0  0  0  0
 MicOpt= -1 -1 -1 -1 -1 -1 -1 -1 -1 -1 -1 -1 -1 -1 -1 -1 -1 -1 -1 -1
 MicOpt= -1 -1 -1 -1 -1 -1 -1 -1 -1 -1 -1 -1 -1 -1 -1 -1 -1 -1 -1 -1
 MicOpt= -1 -1 -1 -1 -1 -1 -1 -1 -1
 NAtoms=     49 NQM=       49 NQMF=       0 NMMI=      0 NMMIF=      0
                NMic=       0 NMicF=      0.
                    Isotopes and Nuclear Properties:
 (Nuclear quadrupole moments (NQMom) in fm**2, nuclear magnetic moments (NMagM)
  in nuclear magnetons)

  Atom         1           2           3           4           5           6           7           8           9          10
 IAtWgt=          16          14          16          12          12          12          12          12          12          12
 AtmWgt=  15.9949146  14.0030740  15.9949146  12.0000000  12.0000000  12.0000000  12.0000000  12.0000000  12.0000000  12.0000000
 NucSpn=           0           2           0           0           0           0           0           0           0           0
 AtZEff=  -0.0000000  -0.0000000  -0.0000000  -0.0000000  -0.0000000  -0.0000000  -0.0000000  -0.0000000  -0.0000000  -0.0000000
 NQMom=    0.0000000   2.0440000   0.0000000   0.0000000   0.0000000   0.0000000   0.0000000   0.0000000   0.0000000   0.0000000
 NMagM=    0.0000000   0.4037610   0.0000000   0.0000000   0.0000000   0.0000000   0.0000000   0.0000000   0.0000000   0.0000000
 AtZNuc=   8.0000000   7.0000000   8.0000000   6.0000000   6.0000000   6.0000000   6.0000000   6.0000000   6.0000000   6.0000000

  Atom        11          12          13          14          15          16          17          18          19          20
 IAtWgt=          12          12          32          12          12          12          12          32          14          11
 AtmWgt=  12.0000000  12.0000000  31.9720718  12.0000000  12.0000000  12.0000000  12.0000000  31.9720718  14.0030740  11.0093053
 NucSpn=           0           0           0           0           0           0           0           0           2           3
 AtZEff=  -0.0000000  -0.0000000  -0.0000000  -0.0000000  -0.0000000  -0.0000000  -0.0000000  -0.0000000  -0.0000000  -0.0000000
 NQMom=    0.0000000   0.0000000   0.0000000   0.0000000   0.0000000   0.0000000   0.0000000   0.0000000   2.0440000   4.0590000
 NMagM=    0.0000000   0.0000000   0.0000000   0.0000000   0.0000000   0.0000000   0.0000000   0.0000000   0.4037610   2.6886370
 AtZNuc=   6.0000000   6.0000000  16.0000000   6.0000000   6.0000000   6.0000000   6.0000000  16.0000000   7.0000000   5.0000000

  Atom        21          22          23          24          25          26          27          28          29          30
 IAtWgt=          19          19          14          12          32          12          12          12          12          32
 AtmWgt=  18.9984033  18.9984033  14.0030740  12.0000000  31.9720718  12.0000000  12.0000000  12.0000000  12.0000000  31.9720718
 NucSpn=           1           1           2           0           0           0           0           0           0           0
 AtZEff=  -0.0000000  -0.0000000  -0.0000000  -0.0000000  -0.0000000  -0.0000000  -0.0000000  -0.0000000  -0.0000000  -0.0000000
 NQMom=    0.0000000   0.0000000   2.0440000   0.0000000   0.0000000   0.0000000   0.0000000   0.0000000   0.0000000   0.0000000
 NMagM=    2.6288670   2.6288670   0.4037610   0.0000000   0.0000000   0.0000000   0.0000000   0.0000000   0.0000000   0.0000000
 AtZNuc=   9.0000000   9.0000000   7.0000000   6.0000000  16.0000000   6.0000000   6.0000000   6.0000000   6.0000000  16.0000000

  Atom        31          32          33          34          35          36          37          38          39          40
 IAtWgt=          12          12          12          12          12           1           1           1           1           1
 AtmWgt=  12.0000000  12.0000000  12.0000000  12.0000000  12.0000000   1.0078250   1.0078250   1.0078250   1.0078250   1.0078250
 NucSpn=           0           0           0           0           0           1           1           1           1           1
 AtZEff=  -0.0000000  -0.0000000  -0.0000000  -0.0000000  -0.0000000  -0.0000000  -0.0000000  -0.0000000  -0.0000000  -0.0000000
 NQMom=    0.0000000   0.0000000   0.0000000   0.0000000   0.0000000   0.0000000   0.0000000   0.0000000   0.0000000   0.0000000
 NMagM=    0.0000000   0.0000000   0.0000000   0.0000000   0.0000000   2.7928460   2.7928460   2.7928460   2.7928460   2.7928460
 AtZNuc=   6.0000000   6.0000000   6.0000000   6.0000000   6.0000000   1.0000000   1.0000000   1.0000000   1.0000000   1.0000000

  Atom        41          42          43          44          45          46          47          48          49
 IAtWgt=           1           1           1           1           1           1           1           1           1
 AtmWgt=   1.0078250   1.0078250   1.0078250   1.0078250   1.0078250   1.0078250   1.0078250   1.0078250   1.0078250
 NucSpn=           1           1           1           1           1           1           1           1           1
 AtZEff=  -0.0000000  -0.0000000  -0.0000000  -0.0000000  -0.0000000  -0.0000000  -0.0000000  -0.0000000  -0.0000000
 NQMom=    0.0000000   0.0000000   0.0000000   0.0000000   0.0000000   0.0000000   0.0000000   0.0000000   0.0000000
 NMagM=    2.7928460   2.7928460   2.7928460   2.7928460   2.7928460   2.7928460   2.7928460   2.7928460   2.7928460
 AtZNuc=   1.0000000   1.0000000   1.0000000   1.0000000   1.0000000   1.0000000   1.0000000   1.0000000   1.0000000
 Leave Link  101 at Fri Nov  7 00:13:06 2025, MaxMem= 30870077440 cpu:               3.6 elap:               0.1
 (Enter /public/software/gauss/g16/l202.exe)
                          Input orientation:                          
 ---------------------------------------------------------------------
 Center     Atomic      Atomic             Coordinates (Angstroms)
 Number     Number       Type             X           Y           Z
 ---------------------------------------------------------------------
      1          8           0       -0.146677    7.946561    0.386585
      2          7           0        0.640595    7.186515   -0.255234
      3          8           0        1.546123    7.665651   -1.003769
      4          6           0        0.507922    5.791783   -0.135322
      5          6           0       -0.470890    5.246343    0.721991
      6          6           0       -0.604707    3.877595    0.826122
      7          6           0        0.235816    2.986242    0.103382
      8          6           0        0.102316    1.542943    0.216090
      9          6           0       -1.180194    0.921935    0.294119
     10          6           0       -2.484452    1.456862    0.246774
     11          6           0       -3.389716    0.398453    0.373842
     12          6           0       -2.627914   -0.771393    0.459744
     13         16           0       -3.173418   -2.452985    0.656788
     14          6           0       -4.858340   -2.341555    0.142874
     15          6           0       -5.968304   -2.301095    0.951244
     16          6           0       -7.192743   -2.301036    0.220400
     17          6           0       -7.003515   -2.343608   -1.134806
     18         16           0       -5.321900   -2.397423   -1.549702
     19          7           0       -1.297848   -0.467999    0.411133
     20          5           0       -0.146374   -1.467776    0.146218
     21          9           0       -0.255768   -2.003845   -1.144245
     22          9           0       -0.188586   -2.511013    1.087185
     23          7           0        1.169442   -0.673833    0.302110
     24          6           0        2.423448   -1.179096    0.486721
     25         16           0        2.701237   -2.930808    0.631742
     26          6           0        4.410601   -3.049762    0.206042
     27          6           0        5.460725   -3.260467    1.066188
     28          6           0        6.711987   -3.404709    0.397173
     29          6           0        6.602527   -3.303553   -0.963548
     30         16           0        4.962565   -3.044121   -1.460921
     31          6           0        3.348690   -0.133567    0.586119
     32          6           0        2.624917    1.055297    0.457892
     33          6           0        1.266762    0.719117    0.277353
     34          6           0        1.223629    3.567842   -0.739082
     35          6           0        1.354892    4.934682   -0.869326
     36          1           0       -1.095216    5.909121    1.307360
     37          1           0       -1.332035    3.476472    1.521512
     38          1           0       -2.740005    2.499123    0.132514
     39          1           0       -4.467687    0.455970    0.404997
     40          1           0       -5.905656   -2.270219    2.032852
     41          1           0       -8.171822   -2.265916    0.683920
     42          1           0       -7.752873   -2.344288   -1.915970
     43          1           0        5.337348   -3.307439    2.141966
     44          1           0        7.653392   -3.570284    0.908176
     45          1           0        7.388658   -3.362839   -1.705220
     46          1           0        4.410182   -0.243720    0.752473
     47          1           0        3.023498    2.056220    0.529552
     48          1           0        1.857578    2.921881   -1.335117
     49          1           0        2.088314    5.357922   -1.543580
 ---------------------------------------------------------------------
                    Distance matrix (angstroms):
                    1          2          3          4          5
     1  O    0.000000
     2  N    1.268621   0.000000
     3  O    2.208521   1.268801   0.000000
     4  C    2.311700   1.406150   2.311589   0.000000
     5  C    2.740217   2.440212   3.591607   1.410873   0.000000
     6  C    4.118188   3.697169   4.724822   2.413801   1.379210
     7  C    4.983098   4.234943   4.983930   2.828795   2.447482
     8  C    6.410725   5.688743   6.407822   4.282598   3.781491
     9  C    7.100850   6.546909   7.388845   5.171999   4.403032
    10  C    6.899343   6.545751   7.507227   5.281273   4.317456
    11  C    8.215315   7.919402   8.892271   6.673742   5.669461
    12  C    9.064470   8.632650   9.526183   7.298140   6.398021
    13  S   10.834423  10.406654  11.287972   9.063989   8.160120
    14  C   11.318326  11.008219  11.936336   9.748095   8.784150
    15  C   11.799349  11.625312  12.634267  10.421939   9.340125
    16  C   12.437359  12.312637  13.311695  11.176784  10.119181
    17  C   12.458669  12.248645  13.164298  11.117789  10.184804
    18  S   11.727325  11.361288  12.195624  10.151374   9.333812
    19  N    8.492975   7.924215   8.731917   6.537912   5.782231
    20  B    9.417405   8.699266   9.359835   7.294420   6.746571
    21  F   10.068064   9.276666   9.836956   7.897656   7.489615
    22  F   10.481100   9.825054  10.533081   8.421168   7.771077
    23  N    8.720694   7.897809   8.449509   6.514073   6.157554
    24  C    9.481202   8.585599   9.012259   7.255986   7.051157
    25  S   11.246683  10.363069  10.783976   9.026772   8.771336
    26  C   11.904642  10.918200  11.157462   9.670592   9.639529
    27  C   12.549992  11.580986  11.789355  10.388316  10.376336
    28  C   13.262455  12.225443  12.296408  11.106279  11.248997
    29  C   13.188619  12.086681  12.078587  10.979768  11.223858
    30  S   12.260209  11.171348  11.250790   9.983700  10.149844
    31  C    8.806013   7.850175   8.161176   6.610614   6.599325
    32  C    7.428078   6.483665   6.855438   5.221865   5.217148
    33  C    7.365167   6.519430   7.069204   5.145685   4.869591
    34  C    4.724198   3.697138   4.118993   2.413022   2.797051
    35  C    3.592135   2.440918   2.740955   1.410937   2.441905
    36  H    2.428727   2.662043   3.924715   2.159896   1.082458
    37  H    4.761809   4.562073   5.675391   3.389868   2.124441
    38  H    6.038583   5.792275   6.808454   4.632750   3.611590
    39  H    8.647567   8.475299   9.493684   7.315704   6.246803
    40  H   11.843084  11.726831  12.785601  10.527623   9.367697
    41  H   12.991768  12.957205  13.997242  11.871631  10.758245
    42  H   13.002213  12.807988  13.693149  11.730605  10.844528
    43  H   12.641535  11.744323  12.028206  10.550130  10.436433
    44  H   13.919442  12.893470  12.930603  11.823491  11.990477
    45  H   13.749889  12.606652  12.500194  11.559248  11.907219
    46  H    9.379741   8.392476   8.593333   7.241761   7.346195
    47  H    6.690782   5.710871   5.999952   4.552429   4.735469
    48  H    5.677033   4.564460   4.765517   3.390784   3.880281
    49  H    3.927057   2.664485   2.431251   2.160802   3.419764
                    6          7          8          9         10
     6  C    0.000000
     7  C    1.422442   0.000000
     8  C    2.514482   1.453835   0.000000
     9  C    3.057800   2.510543   1.427085   0.000000
    10  C    3.119140   3.124007   2.588382   1.410488   0.000000
    11  C    4.479426   4.462542   3.678183   2.272086   1.398527
    12  C    5.083374   4.737907   3.587433   2.233984   2.243002
    13  S    6.833973   6.443161   5.185758   3.936312   3.991201
    14  C    7.565583   7.371391   6.301015   4.919553   4.480414
    15  C    8.182911   8.195481   7.222846   5.809108   5.172595
    16  C    9.052326   9.118799   8.245852   6.822296   6.024159
    17  C    9.137470   9.074598   8.211153   6.827640   6.064179
    18  S    8.201969   7.912316   6.933010   5.618856   5.112138
    19  N    4.420051   3.791915   2.458127   1.399804   2.267186
    20  B    5.407895   4.470591   3.021781   2.607945   3.745695
    21  F    6.212523   5.167126   3.815552   3.388752   4.344935
    22  F    6.407466   5.600696   4.156680   3.660242   4.660614
    23  N    4.913012   3.782499   2.461758   2.840304   4.230114
    24  C    5.903816   4.720458   3.587533   4.175843   5.576139
    25  S    7.571090   6.431870   5.190530   5.479336   6.803765
    26  C    8.574735   7.339803   6.297171   6.858507   8.237298
    27  C    9.370113   8.200490   7.246238   7.886088   9.276339
    28  C   10.331987   9.103371   8.258317   9.000944  10.403460
    29  C   10.330345   9.013039   8.193462   8.944676  10.329551
    30  S    9.172526   7.820133   6.890250   7.519525   8.867532
    31  C    5.637053   4.433534   3.672404   4.659414   6.055590
    32  C    4.304815   3.092253   2.580655   3.810968   5.129471
    33  C    3.712079   2.496592   1.427717   2.455404   3.823194
    34  C    2.426649   1.422596   2.503979   3.721115   4.379271
    35  C    2.798572   2.448451   3.775045   4.886963   5.299196
    36  H    2.144595   3.429932   4.657087   5.089784   4.783036
    37  H    1.083270   2.170156   2.738617   2.838170   2.651763
    38  H    2.634535   3.015567   3.000009   2.224106   1.079199
    39  H    5.177594   5.349410   4.701290   3.322202   2.227115
    40  H    8.206819   8.310891   7.344151   5.961798   5.365244
    41  H    9.748035   9.930285   9.120725   7.693972   6.811487
    42  H    9.865454   9.813841   9.019991   7.665039   6.847077
    43  H    9.416166   8.354153   7.391939   7.986269   9.352586
    44  H   11.120874   9.932581   9.145645   9.929216  11.335146
    45  H   11.078152   9.733705   8.991602   9.786821  11.158768
    46  H    6.491515   5.317829   4.694420   5.728974   7.119248
    47  H    4.070532   2.969467   2.982451   4.360396   5.547676
    48  H    3.412798   2.168763   2.718209   3.985254   4.847874
    49  H    3.880621   3.430612   4.647009   5.808465   6.271668
                   11         12         13         14         15
    11  C    0.000000
    12  C    1.398664   0.000000
    13  S    2.873594   1.778807   0.000000
    14  C    3.117346   2.746018   1.765074   0.000000
    15  C    3.777574   3.706719   2.814456   1.373725   0.000000
    16  C    4.666240   4.820245   4.045800   2.336041   1.425968
    17  C    4.780634   4.915316   4.229825   2.496847   2.329179
    18  S    3.905161   3.733552   3.080205   1.755797   2.584927
    19  N    2.264518   1.365096   2.741948   4.032280   5.046298
    20  B    3.748852   2.596399   3.224021   4.792298   5.936106
    21  F    4.230515   3.117498   3.458053   4.791074   6.092003
    22  F    4.384186   3.061091   3.016261   4.767289   5.785126
    23  N    4.684108   3.801878   4.706550   6.256262   7.349611
    24  C    6.024473   5.067860   5.742528   7.382004   8.479161
    25  S    6.946236   5.752609   5.894108   7.598251   8.698250
    26  C    8.530140   7.402434   7.620804   9.296172  10.432521
    27  C    9.601945   8.484653   8.681478  10.400962  11.469800
    28  C   10.793933   9.704227   9.934506  11.621851  12.740280
    29  C   10.739571   9.676706   9.945756  11.554267  12.755279
    30  S    9.218366   8.152890   8.427832   9.975767  11.218490
    31  C    6.762708   6.011871   6.922614   8.510406   9.572767
    32  C    6.050977   5.561388   6.779992   8.224170   9.238626
    33  C    4.668503   4.174133   5.470046   6.848553   7.869053
    34  C    5.706713   5.924570   7.585040   8.525794   9.435334
    35  C    6.680879   7.084382   8.798423   9.621457  10.454671
    36  H    6.041825   6.906293   8.641006   9.142800   9.554133
    37  H    3.876261   4.566291   6.268724   6.941535   7.429702
    38  H    2.212053   3.288756   4.998608   5.283901   5.842459
    39  H    1.079954   2.212280   3.193830   2.836805   3.186165
    40  H    4.025429   3.932523   3.064650   2.161938   1.083861
    41  H    5.483024   5.746196   5.001977   3.358216   2.219953
    42  H    5.639415   5.863721   5.253790   3.552065   3.377494
    43  H    9.644768   8.526828   8.681531  10.434623  11.412638
    44  H   11.746771  10.664902  10.887211  12.595194  13.680764
    45  H   11.603584  10.570448  10.861140  12.427688  13.659888
    46  H    7.835442   7.063917   7.899430   9.522501  10.582309
    47  H    6.625840   6.319709   7.664913   9.034009  10.000826
    48  H    6.068140   6.081236   7.626781   8.659779   9.682528
    49  H    7.634242   7.989031   9.671490  10.506287  11.392707
                   16         17         18         19         20
    16  C    0.000000
    17  C    1.369015   0.000000
    18  S    2.577325   1.732877   0.000000
    19  N    6.176260   6.201812   4.874479   0.000000
    20  B    7.095854   7.030540   5.525075   1.547781   0.000000
    21  F    7.076171   6.756302   5.097548   2.421560   1.401653
    22  F    7.060710   7.169974   5.772087   2.421036   1.405541
    23  N    8.519425   8.464638   6.966885   2.478260   1.544675
    24  C    9.685082   9.636030   8.100726   3.789382   2.608307
    25  S    9.922533   9.881685   8.331502   4.701784   3.238068
    26  C   11.627484  11.514277   9.911093   6.268489   4.824135
    27  C   12.717945  12.690244  11.128914   7.342022   5.958158
    28  C   13.949583  13.841528  12.231900   8.531232   7.131045
    29  C   13.882228  13.640938  11.973162   8.505648   7.081619
    30  S   12.293516  11.991002  10.305160   7.023800   5.582922
    31  C   10.768170  10.724459   9.212269   4.661843   3.766842
    32  C   10.378238  10.334212   8.894021   4.208409   3.760730
    33  C    8.982638   8.931515   7.514081   2.829199   2.607039
    34  C   10.305322  10.138429   8.893000   4.895800   5.293214
    35  C   11.251897  11.086341   9.939931   6.153500   6.654066
    36  H   10.284357  10.439335   9.748145   6.442976   7.527759
    37  H    8.331890   8.549564   7.736538   4.097922   5.267145
    38  H    6.547986   6.575383   5.785516   3.310779   4.739557
    39  H    3.880862   4.079100   3.562637   3.301763   4.737247
    40  H    2.223179   3.353317   3.632030   5.206713   6.113316
    41  H    1.083827   2.163040   3.623316   7.110446   8.082943
    42  H    2.209003   1.082476   2.458985   7.113594   7.929673
    43  H   12.716463  12.804808  11.317072   7.421862   6.118707
    44  H   14.916157  14.849358  13.258015   9.486618   8.114029
    45  H   14.746277  14.439489  12.748117   9.397576   7.987227
    46  H   11.795911  11.757714  10.229949   5.722624   4.756896
    47  H   11.110933  11.075629   9.685241   5.005970   4.755374
    48  H   10.564412  10.309436   8.937894   4.949484   5.047699
    49  H   12.161796  11.922333  10.726448   7.016292   7.378306
                   21         22         23         24         25
    21  F    0.000000
    22  F    2.289326   0.000000
    23  N    2.427364   2.415743   0.000000
    24  C    3.243217   2.992872   1.364516   0.000000
    25  S    3.571732   2.955458   2.747542   1.779520   0.000000
    26  C    4.969126   4.713723   4.019873   2.743529   1.765587
    27  C    6.256469   5.698845   5.068491   3.727323   2.812862
    28  C    7.272414   6.992333   6.179525   4.832488   4.045457
    29  C    6.982700   7.138126   6.167311   4.907270   4.231306
    30  S    5.330427   5.771603   4.807736   3.703882   3.083129
    31  C    4.414093   4.291345   2.263111   1.399673   2.871556
    32  C    4.497059   4.585889   2.265517   2.243643   3.990624
    33  C    3.428347   3.634227   1.396565   2.232705   3.937672
    34  C    5.778968   6.502467   4.367931   5.047334   6.804038
    35  C    7.128321   7.851664   5.732547   6.352870   8.119839
    36  H    8.326468   8.471665   7.033810   7.955958   9.644369
    37  H    6.188577   6.111145   4.996935   6.070318   7.623137
    38  H    5.298893   5.702859   5.037875   6.349489   7.703278
    39  H    5.117724   5.251578   5.750153   7.082927   7.931907
    40  H    6.487383   5.799755   7.456603   8.541372   8.745175
    41  H    8.128639   7.997172   9.483655  10.652690  10.893494
    42  H    7.544405   8.140342   9.344410  10.520841  10.776050
    43  H    6.616758   5.681796   5.262356   3.969949   3.061325
    44  H    8.319914   7.915221   7.127296   5.766083   5.000918
    45  H    7.784524   8.120207   7.066737   5.850355   5.255469
    46  H    5.335416   5.138221   3.300033   2.211937   3.186771
    47  H    5.480813   5.611422   3.307936   3.290770   4.998474
    48  H    5.363342   6.290522   4.010387   4.522976   6.231714
    49  H    7.736265   8.603798   6.374399   6.853250   8.591318
                   26         27         28         29         30
    26  C    0.000000
    27  C    1.373684   0.000000
    28  C    2.336428   1.426199   0.000000
    29  C    2.497377   2.329248   1.368859   0.000000
    30  S    1.755979   2.584811   2.577405   1.733251   0.000000
    31  C    3.126709   3.803769   4.695512   4.799764   3.907210
    32  C    4.483704   5.199774   6.049751   6.069716   5.094278
    33  C    4.908488   5.835124   6.831601   6.796477   5.553604
    34  C    7.405588   8.236370   8.945927   8.729204   7.630121
    35  C    8.616561   9.368273   9.992394   9.768064   8.776479
    36  H   10.573008  11.274745  12.187218  12.218250  11.158881
    37  H    8.792045   9.577852  10.645237  10.728538   9.541228
    38  H    9.051337  10.064621  11.147440  11.052389   9.622691
    39  H    9.547447  10.621791  11.827511  11.771005  10.230442
    40  H   10.505717  11.450312  12.773701  12.903520  11.442185
    41  H   12.615869  13.674121  14.930065  14.902088  13.331094
    42  H   12.367325  13.576886  14.686977  14.418904  12.742810
    43  H    2.161726   1.083848   2.223375   3.353343   3.631886
    44  H    3.358516   2.220077   1.083874   2.163056   3.623537
    45  H    3.552431   3.377589   2.209003   1.082402   2.459104
    46  H    2.858751   3.209801   3.926372   4.136869   3.611992
    47  H    5.300921   5.873263   6.591223   6.615585   5.808222
    48  H    6.674850   7.547871   8.160383   7.836366   6.726808
    49  H    8.896255   9.615647  10.095968   9.784462   8.880455
                   31         32         33         34         35
    31  C    0.000000
    32  C    1.397744   0.000000
    33  C    2.270866   1.410743   0.000000
    34  C    4.469057   3.115965   3.024935   0.000000
    35  C    5.637437   4.292330   4.369626   1.379292   0.000000
    36  H    7.535421   6.174188   5.794480   3.878989   3.419141
    37  H    5.984691   4.759290   3.988068   3.413217   3.880987
    38  H    6.648986   5.565329   4.386751   4.196693   4.868656
    39  H    7.840670   7.118077   5.741903   6.586634   7.455547
    40  H    9.607353   9.290330   7.966272   9.622540  10.632441
    41  H   11.716598  11.298279   9.907703  11.150433  12.042403
    42  H   11.592775  11.175461   9.774913  10.812767  11.705992
    43  H    4.055722   5.406187   6.021595   8.514259   9.636410
    44  H    5.517717   6.847212   7.719193   9.747213  10.731499
    45  H    5.656834   6.847789   7.620405   9.326057  10.293391
    46  H    1.080080   2.227419   3.321729   5.187182   6.227429
    47  H    2.214524   1.079745   2.222064   2.670948   3.609245
    48  H    3.905166   2.699597   2.793079   1.083704   2.126270
    49  H    6.023339   4.775606   5.050669   2.144594   1.082432
                   36         37         38         39         40
    36  H    0.000000
    37  H    2.453513   0.000000
    38  H    3.964048   2.206107   0.000000
    39  H    6.474927   4.494703   2.689536   0.000000
    40  H    9.516737   7.362332   6.031522   3.485652   0.000000
    41  H   10.830432   8.969909   7.246674   4.605114   2.637261
    42  H   11.083006   9.323341   7.265243   4.901100   4.360148
    43  H   11.270289   9.533472  10.148778  10.645141  11.291274
    44  H   12.905681  11.435508  12.060765  12.782193  13.667584
    45  H   12.923660  11.542897  11.846083  12.633655  13.853006
    46  H    8.274948   6.885078   7.683275   8.912175  10.590684
    47  H    5.693297   4.687405   5.794115   7.661212  10.035326
    48  H    4.962387   4.317584   4.844629   7.008401   9.928188
    49  H    4.308891   4.963208   5.856167   8.414703  11.613912
                   41         42         43         44         45
    41  H    0.000000
    42  H    2.634595   0.000000
    43  H   13.627485  13.738573   0.000000
    44  H   15.880462  15.710884   2.637306   0.000000
    45  H   15.780994  15.177214   4.360250   2.634949   0.000000
    46  H   12.743657  12.628257   3.489513   4.648514   4.963918
    47  H   12.001662  11.894336   6.059919   7.296357   7.308559
    48  H   11.470772  10.974092   7.937464   8.987326   8.380187
    49  H   12.975171  12.502467   9.961323  10.802503  10.206441
                   46         47         48         49
    46  H    0.000000
    47  H    2.694867   0.000000
    48  H    4.571088   2.363415   0.000000
    49  H    6.483928   4.009200   2.455808   0.000000
 Stoichiometry    C23H14BF2N3O2S4(1-,2)
 Framework group  C1[X(C23H14BF2N3O2S4)]
 Deg. of freedom   141
 Full point group                 C1      NOp   1
 Largest Abelian subgroup         C1      NOp   1
 Largest concise Abelian subgroup C1      NOp   1
                         Standard orientation:                         
 ---------------------------------------------------------------------
 Center     Atomic      Atomic             Coordinates (Angstroms)
 Number     Number       Type             X           Y           Z
 ---------------------------------------------------------------------
      1          8           0        0.146678    7.946561   -0.386585
      2          7           0       -0.640594    7.186515    0.255234
      3          8           0       -1.546122    7.665651    1.003769
      4          6           0       -0.507921    5.791783    0.135322
      5          6           0        0.470891    5.246343   -0.721991
      6          6           0        0.604707    3.877595   -0.826122
      7          6           0       -0.235816    2.986242   -0.103382
      8          6           0       -0.102316    1.542943   -0.216090
      9          6           0        1.180194    0.921935   -0.294119
     10          6           0        2.484452    1.456862   -0.246774
     11          6           0        3.389716    0.398453   -0.373842
     12          6           0        2.627914   -0.771393   -0.459744
     13         16           0        3.173418   -2.452985   -0.656788
     14          6           0        4.858340   -2.341556   -0.142874
     15          6           0        5.968304   -2.301096   -0.951244
     16          6           0        7.192743   -2.301037   -0.220400
     17          6           0        7.003515   -2.343609    1.134806
     18         16           0        5.321900   -2.397424    1.549702
     19          7           0        1.297848   -0.467999   -0.411133
     20          5           0        0.146374   -1.467776   -0.146218
     21          9           0        0.255768   -2.003845    1.144245
     22          9           0        0.188586   -2.511013   -1.087185
     23          7           0       -1.169442   -0.673833   -0.302110
     24          6           0       -2.423448   -1.179096   -0.486721
     25         16           0       -2.701237   -2.930808   -0.631742
     26          6           0       -4.410601   -3.049761   -0.206042
     27          6           0       -5.460725   -3.260466   -1.066188
     28          6           0       -6.711987   -3.404708   -0.397173
     29          6           0       -6.602527   -3.303552    0.963548
     30         16           0       -4.962565   -3.044120    1.460921
     31          6           0       -3.348690   -0.133567   -0.586119
     32          6           0       -2.624917    1.055297   -0.457892
     33          6           0       -1.266762    0.719117   -0.277353
     34          6           0       -1.223629    3.567842    0.739082
     35          6           0       -1.354891    4.934682    0.869326
     36          1           0        1.095217    5.909121   -1.307360
     37          1           0        1.332035    3.476472   -1.521512
     38          1           0        2.740005    2.499123   -0.132514
     39          1           0        4.467687    0.455969   -0.404997
     40          1           0        5.905656   -2.270220   -2.032852
     41          1           0        8.171822   -2.265917   -0.683920
     42          1           0        7.752873   -2.344289    1.915970
     43          1           0       -5.337348   -3.307438   -2.141966
     44          1           0       -7.653392   -3.570283   -0.908176
     45          1           0       -7.388658   -3.362838    1.705220
     46          1           0       -4.410182   -0.243719   -0.752473
     47          1           0       -3.023498    2.056220   -0.529552
     48          1           0       -1.857578    2.921881    1.335117
     49          1           0       -2.088313    5.357922    1.543580
 ---------------------------------------------------------------------
 Rotational constants (GHZ):           0.0753354           0.0689883           0.0380149
 Leave Link  202 at Fri Nov  7 00:13:06 2025, MaxMem= 30870077440 cpu:               0.3 elap:               0.0
 (Enter /public/software/gauss/g16/l301.exe)
 Standard basis: def2TZVPP (5D, 7F)
 Ernie: Thresh=  0.10000D-02 Tol=  0.10000D-05 Strict=F.
 There are  1518 symmetry adapted cartesian basis functions of A   symmetry.
 There are  1325 symmetry adapted basis functions of A   symmetry.
  1325 basis functions,  2095 primitive gaussians,  1518 cartesian basis functions
   139 alpha electrons      138 beta electrons
       nuclear repulsion energy      4133.5606709266 Hartrees.
 IExCor= 4336 DFT=T Ex+Corr=M062X ExCW=0 ScaHFX=  0.540000
 ScaDFX=  1.000000  1.000000  1.000000  1.000000 ScalE2=  1.000000  1.000000
 IRadAn=      5 IRanWt=     -1 IRanGd=            0 ICorTp=0 IEmpDi=131
 NAtoms=   49 NActive=   49 NUniq=   49 SFac= 1.00D+00 NAtFMM=   60 NAOKFM=F Big=F
 Integral buffers will be    131072 words long.
 Raffenetti 2 integral format.
 Two-electron integral symmetry is turned on.
 R6Disp:  Grimme-D3 Dispersion energy=       -0.0035985059 Hartrees.
 Nuclear repulsion after empirical dispersion term =     4133.5570724208 Hartrees.
 ------------------------------------------------------------------------------
 Polarizable Continuum Model (PCM)
 =================================
 Model                : PCM.
 Atomic radii         : UFF (Universal Force Field).
 Polarization charges : Total charges.
 Charge compensation  : None.
 Solution method      : On-the-fly selection.
 Cavity type          : Scaled VdW (van der Waals Surface) (Alpha=1.100).
 Cavity algorithm     : GePol (No added spheres)
                        Default sphere list used, NSphG=   49.
                        Lebedev-Laikov grids with approx.  5.0 points / Ang**2.
                        Smoothing algorithm: York/Karplus (Gamma=1.0000).
                        Polarization charges: spherical gaussians, with
                                              point-specific exponents (IZeta= 3).
                        Self-potential: point-specific (ISelfS= 7).
                        Self-field    : sphere-specific E.n sum rule (ISelfD= 2).
 Solvent              : Water, Eps=  78.355300 Eps(inf)=   1.777849
 ------------------------------------------------------------------------------
 GePol: Number of generator spheres                  =      49
 GePol: Total number of spheres                      =      49
 GePol: Number of exposed spheres                    =      49 (100.00%)
 GePol: Number of points                             =    4335
 GePol: Average weight of points                     =       0.13
 GePol: Minimum weight of points                     =   0.53D-11
 GePol: Maximum weight of points                     =    0.20577
 GePol: Number of points with low weight             =     255
 GePol: Fraction of low-weight points (<1% of avg)   =       5.88%
 GePol: Cavity surface area                          =    546.749 Ang**2
 GePol: Cavity volume                                =    622.792 Ang**3
 Leave Link  301 at Fri Nov  7 00:13:06 2025, MaxMem= 30870077440 cpu:               3.7 elap:               0.1
 (Enter /public/software/gauss/g16/l302.exe)
 NPDir=0 NMtPBC=     1 NCelOv=     1 NCel=       1 NClECP=     1 NCelD=      1
         NCelK=      1 NCelE2=     1 NClLst=     1 CellRange=     0.0.
 One-electron integrals computed using PRISM.
 One-electron integral symmetry used in STVInt
   1 Symmetry operations used in ECPInt.
 ECPInt:  NShTT=  115921 NPrTT=  354084 LenC2=   79928 LenP2D=  163735.
 LDataN:  DoStor=T MaxTD1= 6 Len=  172
 NBasis=  1325 RedAO= T EigKep=  7.70D-06  NBF=  1325
 NBsUse=  1325 1.00D-06 EigRej= -1.00D+00 NBFU=  1325
 Precomputing XC quadrature grid using
 IXCGrd= 4 IRadAn=           5 IRanWt=          -1 IRanGd=           0 AccXCQ= 0.00D+00.
 Generated NRdTot=       0 NPtTot=           0 NUsed=           0 NTot=          32
 NSgBfM=  1385  1385  1385  1385  1385 MxSgAt=    49 MxSgA2=    49.
 Leave Link  302 at Fri Nov  7 00:13:13 2025, MaxMem= 30870077440 cpu:             412.1 elap:               6.5
 (Enter /public/software/gauss/g16/l303.exe)
 DipDrv:  MaxL=1.
 Leave Link  303 at Fri Nov  7 00:13:13 2025, MaxMem= 30870077440 cpu:              15.5 elap:               0.3
 (Enter /public/software/gauss/g16/l401.exe)
 ExpMin= 6.06D-02 ExpMax= 6.07D+04 ExpMxC= 2.07D+03 IAcc=3 IRadAn=         5 AccDes= 0.00D+00
 Harris functional with IExCor= 1009 and IRadAn=       5 diagonalized for initial guess.
 HarFok:  IExCor= 1009 AccDes= 0.00D+00 IRadAn=         5 IDoV= 1 UseB2=F ITyADJ=14
 ICtDFT=  3500011 ScaDFX=  1.000000  1.000000  1.000000  1.000000
 FoFCou: FMM=F IPFlag=           0 FMFlag=      100000 FMFlg1=           0
         NFxFlg=           0 DoJE=T BraDBF=F KetDBF=T FulRan=T
         wScrn=  0.000000 ICntrl=       500 IOpCl=  0 I1Cent=   200000004 NGrid=           0
         NMat0=    1 NMatS0=      1 NMatT0=    0 NMatD0=    1 NMtDS0=    0 NMtDT0=    0
 Petite list used in FoFCou.
 Harris En= -3015.68031958288    
 JPrj=0 DoOrth=F DoCkMO=F.
 Initial guess <Sx>= 0.0000 <Sy>= 0.0000 <Sz>= 0.5000 <S**2>= 0.7500 S= 0.5000
 Leave Link  401 at Fri Nov  7 00:13:19 2025, MaxMem= 30870077440 cpu:             376.1 elap:               5.9
 (Enter /public/software/gauss/g16/l502.exe)
 Integral symmetry usage will be decided dynamically.
 UHF open shell SCF:
 Using DIIS extrapolation, IDIIS=  1040.
 NGot= 30870077440 LenX= 30865359035 LenY= 30863053193
 Requested convergence on RMS density matrix=1.00D-08 within 128 cycles.
 Requested convergence on MAX density matrix=1.00D-06.
 Requested convergence on             energy=1.00D-06.
 No special actions if energy rises.
 Fock matrices will be formed incrementally for  20 cycles.

 Cycle   1  Pass 1  IDiag  1:
 FoFJK:  IHMeth= 1 ICntrl=       0 DoSepK=F KAlg= 0 I1Cent=           0 FoldK=F
 IRaf= 600000000 NMat=       1 IRICut=       1 DoRegI=T DoRafI=F ISym2E= 0 IDoP0=0 IntGTp=1.
 FoFCou: FMM=F IPFlag=           0 FMFlag=      100000 FMFlg1=           0
         NFxFlg=           0 DoJE=F BraDBF=F KetDBF=F FulRan=T
         wScrn=  0.000000 ICntrl=         0 IOpCl=  1 I1Cent=           0 NGrid=           0
         NMat0=    1 NMatS0=      1 NMatT0=    0 NMatD0=    1 NMtDS0=    0 NMtDT0=    0
 Symmetry not used in FoFCou.
 Inv3:  Mode=1 IEnd=    56376675.
 Iteration    1 A*A^-1 deviation from unit magnitude is 1.07D-14 for    931.
 Iteration    1 A*A^-1 deviation from orthogonality  is 6.91D-15 for   3208    907.
 Iteration    1 A^-1*A deviation from unit magnitude is 9.33D-15 for    931.
 Iteration    1 A^-1*A deviation from orthogonality  is 4.28D-15 for   4326   1168.
 E= -3015.99341410873    
 DIIS: error= 2.49D-02 at cycle   1 NSaved=   1.
 NSaved= 1 IEnMin= 1 EnMin= -3015.99341410873     IErMin= 1 ErrMin= 2.49D-02
 ErrMax= 2.49D-02  0.00D+00 EMaxC= 1.00D-01 BMatC= 5.65D+00 BMatP= 5.65D+00
 IDIUse=3 WtCom= 7.51D-01 WtEn= 2.49D-01
 Coeff-Com:  0.100D+01
 Coeff-En:   0.100D+01
 Coeff:      0.100D+01
 Gap=     0.097 Goal=   None    Shift=    0.000
 Gap=     0.209 Goal=   None    Shift=    0.000
 GapD=    0.097 DampG=0.500 DampE=0.500 DampFc=0.2500 IDamp=-1.
 Damping current iteration by 2.50D-01
 RMSDP=1.81D-03 MaxDP=1.49D-01              OVMax= 5.63D-01

 Cycle   2  Pass 1  IDiag  1:
 RMSU=  4.51D-04    CP:  9.96D-01
 E= -3016.38868624591     Delta-E=       -0.395272137180 Rises=F Damp=T
 DIIS: error= 1.25D-02 at cycle   2 NSaved=   2.
 NSaved= 2 IEnMin= 2 EnMin= -3016.38868624591     IErMin= 2 ErrMin= 1.25D-02
 ErrMax= 1.25D-02  0.00D+00 EMaxC= 1.00D-01 BMatC= 1.70D+00 BMatP= 5.65D+00
 IDIUse=3 WtCom= 8.75D-01 WtEn= 1.25D-01
 Coeff-Com: -0.947D+00 0.195D+01
 Coeff-En:   0.000D+00 0.100D+01
 Coeff:     -0.829D+00 0.183D+01
 Gap=     0.075 Goal=   None    Shift=    0.000
 Gap=     0.208 Goal=   None    Shift=    0.000
 RMSDP=8.95D-04 MaxDP=5.57D-02 DE=-3.95D-01 OVMax= 4.78D-01

 Cycle   3  Pass 1  IDiag  1:
 RMSU=  7.66D-04    CP:  9.87D-01  2.02D+00
 E= -3017.06615193825     Delta-E=       -0.677465692333 Rises=F Damp=F
 DIIS: error= 8.11D-03 at cycle   3 NSaved=   3.
 NSaved= 3 IEnMin= 3 EnMin= -3017.06615193825     IErMin= 3 ErrMin= 8.11D-03
 ErrMax= 8.11D-03  0.00D+00 EMaxC= 1.00D-01 BMatC= 1.47D-01 BMatP= 1.70D+00
 IDIUse=3 WtCom= 9.19D-01 WtEn= 8.11D-02
 Coeff-Com: -0.348D+00 0.651D+00 0.697D+00
 Coeff-En:   0.000D+00 0.000D+00 0.100D+01
 Coeff:     -0.320D+00 0.598D+00 0.722D+00
 Gap=     0.090 Goal=   None    Shift=    0.000
 Gap=     0.145 Goal=   None    Shift=    0.000
 RMSDP=2.80D-04 MaxDP=2.94D-02 DE=-6.77D-01 OVMax= 1.40D-01

 Cycle   4  Pass 1  IDiag  1:
 RMSU=  2.68D-04    CP:  9.83D-01  1.94D+00  9.11D-01
 E= -3017.08660210065     Delta-E=       -0.020450162402 Rises=F Damp=F
 DIIS: error= 5.14D-03 at cycle   4 NSaved=   4.
 NSaved= 4 IEnMin= 4 EnMin= -3017.08660210065     IErMin= 4 ErrMin= 5.14D-03
 ErrMax= 5.14D-03  0.00D+00 EMaxC= 1.00D-01 BMatC= 5.88D-02 BMatP= 1.47D-01
 IDIUse=3 WtCom= 9.49D-01 WtEn= 5.14D-02
 Coeff-Com: -0.715D-01 0.123D+00 0.396D+00 0.553D+00
 Coeff-En:   0.000D+00 0.000D+00 0.277D+00 0.723D+00
 Coeff:     -0.678D-01 0.116D+00 0.390D+00 0.562D+00
 Gap=     0.100 Goal=   None    Shift=    0.000
 Gap=     0.149 Goal=   None    Shift=    0.000
 RMSDP=1.20D-04 MaxDP=1.20D-02 DE=-2.05D-02 OVMax= 6.65D-02

 Cycle   5  Pass 1  IDiag  1:
 RMSU=  9.23D-05    CP:  9.84D-01  1.96D+00  9.67D-01  7.68D-01
 E= -3017.09944475188     Delta-E=       -0.012842651236 Rises=F Damp=F
 DIIS: error= 6.76D-04 at cycle   5 NSaved=   5.
 NSaved= 5 IEnMin= 5 EnMin= -3017.09944475188     IErMin= 5 ErrMin= 6.76D-04
 ErrMax= 6.76D-04  0.00D+00 EMaxC= 1.00D-01 BMatC= 3.54D-03 BMatP= 5.88D-02
 IDIUse=3 WtCom= 9.93D-01 WtEn= 6.76D-03
 Coeff-Com: -0.486D-02 0.688D-02 0.130D+00 0.271D+00 0.598D+00
 Coeff-En:   0.000D+00 0.000D+00 0.000D+00 0.000D+00 0.100D+01
 Coeff:     -0.482D-02 0.683D-02 0.129D+00 0.269D+00 0.600D+00
 Gap=     0.102 Goal=   None    Shift=    0.000
 Gap=     0.150 Goal=   None    Shift=    0.000
 RMSDP=3.84D-05 MaxDP=4.27D-03 DE=-1.28D-02 OVMax= 1.57D-02

 Cycle   6  Pass 1  IDiag  1:
 RMSU=  3.59D-05    CP:  9.84D-01  1.97D+00  9.64D-01  8.13D-01  9.94D-01
 E= -3017.10047000023     Delta-E=       -0.001025248347 Rises=F Damp=F
 DIIS: error= 2.10D-04 at cycle   6 NSaved=   6.
 NSaved= 6 IEnMin= 6 EnMin= -3017.10047000023     IErMin= 6 ErrMin= 2.10D-04
 ErrMax= 2.10D-04  0.00D+00 EMaxC= 1.00D-01 BMatC= 2.98D-04 BMatP= 3.54D-03
 IDIUse=3 WtCom= 9.98D-01 WtEn= 2.10D-03
 Coeff-Com:  0.796D-02-0.133D-01-0.181D-02 0.278D-01 0.210D+00 0.769D+00
 Coeff-En:   0.000D+00 0.000D+00 0.000D+00 0.000D+00 0.000D+00 0.100D+01
 Coeff:      0.794D-02-0.133D-01-0.180D-02 0.277D-01 0.210D+00 0.770D+00
 Gap=     0.103 Goal=   None    Shift=    0.000
 Gap=     0.151 Goal=   None    Shift=    0.000
 RMSDP=2.34D-05 MaxDP=3.93D-03 DE=-1.03D-03 OVMax= 6.12D-03

 Cycle   7  Pass 1  IDiag  1:
 RMSU=  1.36D-05    CP:  9.84D-01  1.97D+00  9.73D-01  8.26D-01  1.17D+00
                    CP:  1.17D+00
 E= -3017.10062439123     Delta-E=       -0.000154390995 Rises=F Damp=F
 DIIS: error= 9.25D-05 at cycle   7 NSaved=   7.
 NSaved= 7 IEnMin= 7 EnMin= -3017.10062439123     IErMin= 7 ErrMin= 9.25D-05
 ErrMax= 9.25D-05  0.00D+00 EMaxC= 1.00D-01 BMatC= 7.38D-05 BMatP= 2.98D-04
 IDIUse=1 WtCom= 1.00D+00 WtEn= 0.00D+00
 Coeff-Com:  0.483D-02-0.782D-02-0.268D-01-0.412D-01-0.271D-01 0.328D+00
 Coeff-Com:  0.770D+00
 Coeff:      0.483D-02-0.782D-02-0.268D-01-0.412D-01-0.271D-01 0.328D+00
 Coeff:      0.770D+00
 Gap=     0.104 Goal=   None    Shift=    0.000
 Gap=     0.152 Goal=   None    Shift=    0.000
 RMSDP=1.21D-05 MaxDP=2.05D-03 DE=-1.54D-04 OVMax= 5.48D-03

 Cycle   8  Pass 1  IDiag  1:
 RMSU=  5.86D-06    CP:  9.84D-01  1.96D+00  9.76D-01  8.42D-01  1.24D+00
                    CP:  1.33D+00  1.30D+00
 E= -3017.10067510740     Delta-E=       -0.000050716174 Rises=F Damp=F
 DIIS: error= 6.32D-05 at cycle   8 NSaved=   8.
 NSaved= 8 IEnMin= 8 EnMin= -3017.10067510740     IErMin= 8 ErrMin= 6.32D-05
 ErrMax= 6.32D-05  0.00D+00 EMaxC= 1.00D-01 BMatC= 1.95D-05 BMatP= 7.38D-05
 IDIUse=1 WtCom= 1.00D+00 WtEn= 0.00D+00
 Coeff-Com: -0.298D-03 0.571D-03-0.973D-02-0.212D-01-0.533D-01-0.534D-01
 Coeff-Com:  0.324D+00 0.813D+00
 Coeff:     -0.298D-03 0.571D-03-0.973D-02-0.212D-01-0.533D-01-0.534D-01
 Coeff:      0.324D+00 0.813D+00
 Gap=     0.104 Goal=   None    Shift=    0.000
 Gap=     0.153 Goal=   None    Shift=    0.000
 RMSDP=6.24D-06 MaxDP=6.33D-04 DE=-5.07D-05 OVMax= 2.71D-03

 Cycle   9  Pass 1  IDiag  1:
 RMSU=  2.80D-06    CP:  9.84D-01  1.96D+00  9.77D-01  8.42D-01  1.27D+00
                    CP:  1.39D+00  1.54D+00  1.35D+00
 E= -3017.10068901107     Delta-E=       -0.000013903667 Rises=F Damp=F
 DIIS: error= 3.94D-05 at cycle   9 NSaved=   9.
 NSaved= 9 IEnMin= 9 EnMin= -3017.10068901107     IErMin= 9 ErrMin= 3.94D-05
 ErrMax= 3.94D-05  0.00D+00 EMaxC= 1.00D-01 BMatC= 3.78D-06 BMatP= 1.95D-05
 IDIUse=1 WtCom= 1.00D+00 WtEn= 0.00D+00
 Coeff-Com: -0.911D-03 0.148D-02 0.164D-02 0.196D-02-0.739D-02-0.827D-01
 Coeff-Com: -0.432D-01 0.264D+00 0.865D+00
 Coeff:     -0.911D-03 0.148D-02 0.164D-02 0.196D-02-0.739D-02-0.827D-01
 Coeff:     -0.432D-01 0.264D+00 0.865D+00
 Gap=     0.104 Goal=   None    Shift=    0.000
 Gap=     0.153 Goal=   None    Shift=    0.000
 RMSDP=2.90D-06 MaxDP=2.08D-04 DE=-1.39D-05 OVMax= 1.30D-03

 Cycle  10  Pass 1  IDiag  1:
 RMSU=  1.49D-06    CP:  9.84D-01  1.96D+00  9.77D-01  8.43D-01  1.28D+00
                    CP:  1.40D+00  1.62D+00  1.63D+00  1.39D+00
 E= -3017.10069253076     Delta-E=       -0.000003519694 Rises=F Damp=F
 DIIS: error= 1.63D-05 at cycle  10 NSaved=  10.
 NSaved=10 IEnMin=10 EnMin= -3017.10069253076     IErMin=10 ErrMin= 1.63D-05
 ErrMax= 1.63D-05  0.00D+00 EMaxC= 1.00D-01 BMatC= 1.32D-06 BMatP= 3.78D-06
 IDIUse=1 WtCom= 1.00D+00 WtEn= 0.00D+00
 Coeff-Com: -0.377D-03 0.590D-03 0.332D-02 0.727D-02 0.123D-01-0.236D-01
 Coeff-Com: -0.117D+00-0.123D+00 0.358D+00 0.882D+00
 Coeff:     -0.377D-03 0.590D-03 0.332D-02 0.727D-02 0.123D-01-0.236D-01
 Coeff:     -0.117D+00-0.123D+00 0.358D+00 0.882D+00
 Gap=     0.105 Goal=   None    Shift=    0.000
 Gap=     0.153 Goal=   None    Shift=    0.000
 RMSDP=2.13D-06 MaxDP=1.87D-04 DE=-3.52D-06 OVMax= 1.20D-03

 Cycle  11  Pass 1  IDiag  1:
 RMSU=  9.32D-07    CP:  9.84D-01  1.96D+00  9.77D-01  8.44D-01  1.28D+00
                    CP:  1.41D+00  1.67D+00  1.81D+00  1.76D+00  1.68D+00
 E= -3017.10069402134     Delta-E=       -0.000001490579 Rises=F Damp=F
 DIIS: error= 7.85D-06 at cycle  11 NSaved=  11.
 NSaved=11 IEnMin=11 EnMin= -3017.10069402134     IErMin=11 ErrMin= 7.85D-06
 ErrMax= 7.85D-06  0.00D+00 EMaxC= 1.00D-01 BMatC= 3.66D-07 BMatP= 1.32D-06
 IDIUse=1 WtCom= 1.00D+00 WtEn= 0.00D+00
 Coeff-Com:  0.808D-04-0.159D-03 0.320D-03 0.191D-02 0.525D-02 0.146D-01
 Coeff-Com: -0.211D-01-0.817D-01-0.151D+00 0.257D+00 0.974D+00
 Coeff:      0.808D-04-0.159D-03 0.320D-03 0.191D-02 0.525D-02 0.146D-01
 Coeff:     -0.211D-01-0.817D-01-0.151D+00 0.257D+00 0.974D+00
 Gap=     0.105 Goal=   None    Shift=    0.000
 Gap=     0.153 Goal=   None    Shift=    0.000
 RMSDP=1.54D-06 MaxDP=1.74D-04 DE=-1.49D-06 OVMax= 1.30D-03

 Cycle  12  Pass 1  IDiag  1:
 RMSU=  5.08D-07    CP:  9.84D-01  1.96D+00  9.77D-01  8.44D-01  1.28D+00
                    CP:  1.40D+00  1.67D+00  1.89D+00  1.98D+00  2.36D+00
                    CP:  1.68D+00
 E= -3017.10069463546     Delta-E=       -0.000000614124 Rises=F Damp=F
 DIIS: error= 9.72D-06 at cycle  12 NSaved=  12.
 NSaved=12 IEnMin=12 EnMin= -3017.10069463546     IErMin=11 ErrMin= 7.85D-06
 ErrMax= 9.72D-06  0.00D+00 EMaxC= 1.00D-01 BMatC= 1.81D-07 BMatP= 3.66D-07
 IDIUse=1 WtCom= 1.00D+00 WtEn= 0.00D+00
 Coeff-Com:  0.629D-04-0.129D-03-0.896D-03-0.817D-03-0.899D-03 0.137D-01
 Coeff-Com:  0.190D-01 0.608D-02-0.177D+00-0.122D+00 0.394D+00 0.869D+00
 Coeff:      0.629D-04-0.129D-03-0.896D-03-0.817D-03-0.899D-03 0.137D-01
 Coeff:      0.190D-01 0.608D-02-0.177D+00-0.122D+00 0.394D+00 0.869D+00
 Gap=     0.105 Goal=   None    Shift=    0.000
 Gap=     0.153 Goal=   None    Shift=    0.000
 RMSDP=1.20D-06 MaxDP=1.29D-04 DE=-6.14D-07 OVMax= 1.09D-03

 Cycle  13  Pass 1  IDiag  1:
 RMSU=  2.76D-07    CP:  9.84D-01  1.96D+00  9.77D-01  8.44D-01  1.28D+00
                    CP:  1.40D+00  1.66D+00  1.93D+00  2.09D+00  2.87D+00
                    CP:  2.36D+00  1.81D+00
 E= -3017.10069497247     Delta-E=       -0.000000337006 Rises=F Damp=F
 DIIS: error= 9.93D-06 at cycle  13 NSaved=  13.
 NSaved=13 IEnMin=13 EnMin= -3017.10069497247     IErMin=11 ErrMin= 7.85D-06
 ErrMax= 9.93D-06  0.00D+00 EMaxC= 1.00D-01 BMatC= 9.81D-08 BMatP= 1.81D-07
 IDIUse=1 WtCom= 1.00D+00 WtEn= 0.00D+00
 Coeff-Com: -0.600D-04 0.765D-04-0.736D-03-0.891D-03-0.248D-02 0.240D-02
 Coeff-Com:  0.170D-01 0.377D-01-0.632D-01-0.150D+00-0.106D+00 0.365D+00
 Coeff-Com:  0.901D+00
 Coeff:     -0.600D-04 0.765D-04-0.736D-03-0.891D-03-0.248D-02 0.240D-02
 Coeff:      0.170D-01 0.377D-01-0.632D-01-0.150D+00-0.106D+00 0.365D+00
 Coeff:      0.901D+00
 Gap=     0.105 Goal=   None    Shift=    0.000
 Gap=     0.153 Goal=   None    Shift=    0.000
 RMSDP=1.11D-06 MaxDP=1.14D-04 DE=-3.37D-07 OVMax= 1.10D-03

 Cycle  14  Pass 1  IDiag  1:
 RMSU=  4.81D-07    CP:  9.84D-01  1.96D+00  9.77D-01  8.45D-01  1.28D+00
                    CP:  1.40D+00  1.66D+00  1.97D+00  2.17D+00  3.00D+00
                    CP:  2.98D+00  2.78D+00  1.87D+00
 E= -3017.10069522408     Delta-E=       -0.000000251606 Rises=F Damp=F
 DIIS: error= 8.62D-06 at cycle  14 NSaved=  14.
 NSaved=14 IEnMin=14 EnMin= -3017.10069522408     IErMin=11 ErrMin= 7.85D-06
 ErrMax= 8.62D-06  0.00D+00 EMaxC= 1.00D-01 BMatC= 6.37D-08 BMatP= 9.81D-08
 IDIUse=1 WtCom= 1.00D+00 WtEn= 0.00D+00
 Coeff-Com: -0.981D-04 0.147D-03 0.142D-03 0.699D-03 0.980D-04-0.670D-02
 Coeff-Com: -0.682D-02 0.747D-02 0.477D-01 0.521D-01-0.138D+00-0.491D+00
 Coeff-Com:  0.187D+00 0.135D+01
 Coeff:     -0.981D-04 0.147D-03 0.142D-03 0.699D-03 0.980D-04-0.670D-02
 Coeff:     -0.682D-02 0.747D-02 0.477D-01 0.521D-01-0.138D+00-0.491D+00
 Coeff:      0.187D+00 0.135D+01
 Gap=     0.105 Goal=   None    Shift=    0.000
 Gap=     0.153 Goal=   None    Shift=    0.000
 RMSDP=1.37D-06 MaxDP=1.39D-04 DE=-2.52D-07 OVMax= 1.44D-03

 Cycle  15  Pass 1  IDiag  1:
 RMSU=  8.69D-07    CP:  9.84D-01  1.96D+00  9.77D-01  8.45D-01  1.29D+00
                    CP:  1.40D+00  1.65D+00  2.01D+00  2.25D+00  3.00D+00
                    CP:  3.00D+00  3.00D+00  3.00D+00  2.61D+00
 E= -3017.10069547818     Delta-E=       -0.000000254103 Rises=F Damp=F
 DIIS: error= 6.78D-06 at cycle  15 NSaved=  15.
 NSaved=15 IEnMin=15 EnMin= -3017.10069547818     IErMin=15 ErrMin= 6.78D-06
 ErrMax= 6.78D-06  0.00D+00 EMaxC= 1.00D-01 BMatC= 3.81D-08 BMatP= 6.37D-08
 IDIUse=1 WtCom= 1.00D+00 WtEn= 0.00D+00
 Coeff-Com: -0.377D-04 0.581D-04 0.467D-03 0.129D-02 0.197D-02-0.477D-02
 Coeff-Com: -0.145D-01-0.229D-01 0.437D-01 0.140D+00 0.583D-01-0.561D+00
 Coeff-Com: -0.523D+00 0.558D+00 0.132D+01
 Coeff:     -0.377D-04 0.581D-04 0.467D-03 0.129D-02 0.197D-02-0.477D-02
 Coeff:     -0.145D-01-0.229D-01 0.437D-01 0.140D+00 0.583D-01-0.561D+00
 Coeff:     -0.523D+00 0.558D+00 0.132D+01
 Gap=     0.105 Goal=   None    Shift=    0.000
 Gap=     0.153 Goal=   None    Shift=    0.000
 RMSDP=1.67D-06 MaxDP=1.68D-04 DE=-2.54D-07 OVMax= 1.76D-03

 Cycle  16  Pass 1  IDiag  1:
 RMSU=  8.75D-07    CP:  9.84D-01  1.96D+00  9.77D-01  8.45D-01  1.29D+00
                    CP:  1.40D+00  1.65D+00  2.06D+00  2.35D+00  3.00D+00
                    CP:  3.00D+00  3.00D+00  3.00D+00  3.00D+00  2.37D+00
 E= -3017.10069569637     Delta-E=       -0.000000218193 Rises=F Damp=F
 DIIS: error= 4.23D-06 at cycle  16 NSaved=  16.
 NSaved=16 IEnMin=16 EnMin= -3017.10069569637     IErMin=16 ErrMin= 4.23D-06
 ErrMax= 4.23D-06  0.00D+00 EMaxC= 1.00D-01 BMatC= 1.73D-08 BMatP= 3.81D-08
 IDIUse=1 WtCom= 1.00D+00 WtEn= 0.00D+00
 Coeff-Com:  0.209D-04-0.338D-04 0.664D-04 0.348D-03 0.104D-02 0.195D-02
 Coeff-Com: -0.259D-02-0.167D-01-0.208D-01 0.494D-01 0.150D+00-0.150D-01
 Coeff-Com: -0.406D+00-0.618D+00 0.766D+00 0.111D+01
 Coeff:      0.209D-04-0.338D-04 0.664D-04 0.348D-03 0.104D-02 0.195D-02
 Coeff:     -0.259D-02-0.167D-01-0.208D-01 0.494D-01 0.150D+00-0.150D-01
 Coeff:     -0.406D+00-0.618D+00 0.766D+00 0.111D+01
 Gap=     0.105 Goal=   None    Shift=    0.000
 Gap=     0.153 Goal=   None    Shift=    0.000
 RMSDP=1.45D-06 MaxDP=1.47D-04 DE=-2.18D-07 OVMax= 1.55D-03

 Cycle  17  Pass 1  IDiag  1:
 RMSU=  5.08D-07    CP:  9.84D-01  1.96D+00  9.77D-01  8.46D-01  1.29D+00
                    CP:  1.39D+00  1.64D+00  2.11D+00  2.43D+00  3.00D+00
                    CP:  3.00D+00  3.00D+00  3.00D+00  3.00D+00  3.00D+00
                    CP:  2.03D+00
 E= -3017.10069580355     Delta-E=       -0.000000107174 Rises=F Damp=F
 DIIS: error= 1.82D-06 at cycle  17 NSaved=  17.
 NSaved=17 IEnMin=17 EnMin= -3017.10069580355     IErMin=17 ErrMin= 1.82D-06
 ErrMax= 1.82D-06  0.00D+00 EMaxC= 1.00D-01 BMatC= 6.46D-09 BMatP= 1.73D-08
 IDIUse=1 WtCom= 1.00D+00 WtEn= 0.00D+00
 Coeff-Com:  0.139D-04-0.258D-04-0.202D-03-0.348D-03-0.252D-03 0.324D-02
 Coeff-Com:  0.512D-02 0.204D-02-0.354D-01-0.341D-01 0.591D-01 0.244D+00
 Coeff-Com:  0.340D-01-0.603D+00-0.206D+00 0.657D+00 0.875D+00
 Coeff:      0.139D-04-0.258D-04-0.202D-03-0.348D-03-0.252D-03 0.324D-02
 Coeff:      0.512D-02 0.204D-02-0.354D-01-0.341D-01 0.591D-01 0.244D+00
 Coeff:      0.340D-01-0.603D+00-0.206D+00 0.657D+00 0.875D+00
 Gap=     0.105 Goal=   None    Shift=    0.000
 Gap=     0.153 Goal=   None    Shift=    0.000
 RMSDP=7.25D-07 MaxDP=7.38D-05 DE=-1.07D-07 OVMax= 7.77D-04

 Cycle  18  Pass 1  IDiag  1:
 RMSU=  1.15D-07    CP:  9.84D-01  1.96D+00  9.77D-01  8.46D-01  1.29D+00
                    CP:  1.39D+00  1.64D+00  2.13D+00  2.47D+00  3.00D+00
                    CP:  3.00D+00  3.00D+00  3.00D+00  3.00D+00  3.00D+00
                    CP:  2.55D+00  1.99D+00
 E= -3017.10069582824     Delta-E=       -0.000000024696 Rises=F Damp=F
 DIIS: error= 6.32D-07 at cycle  18 NSaved=  18.
 NSaved=18 IEnMin=18 EnMin= -3017.10069582824     IErMin=18 ErrMin= 6.32D-07
 ErrMax= 6.32D-07  0.00D+00 EMaxC= 1.00D-01 BMatC= 1.74D-09 BMatP= 6.46D-09
 IDIUse=1 WtCom= 1.00D+00 WtEn= 0.00D+00
 Coeff-Com: -0.805D-05 0.905D-05-0.122D-03-0.266D-03-0.440D-03 0.867D-03
 Coeff-Com:  0.326D-02 0.760D-02-0.114D-01-0.343D-01-0.259D-01 0.124D+00
 Coeff-Com:  0.180D+00-0.668D-01-0.409D+00-0.737D-01 0.448D+00 0.858D+00
 Coeff:     -0.805D-05 0.905D-05-0.122D-03-0.266D-03-0.440D-03 0.867D-03
 Coeff:      0.326D-02 0.760D-02-0.114D-01-0.343D-01-0.259D-01 0.124D+00
 Coeff:      0.180D+00-0.668D-01-0.409D+00-0.737D-01 0.448D+00 0.858D+00
 Gap=     0.105 Goal=   None    Shift=    0.000
 Gap=     0.153 Goal=   None    Shift=    0.000
 RMSDP=2.92D-07 MaxDP=2.96D-05 DE=-2.47D-08 OVMax= 3.08D-04

 Cycle  19  Pass 1  IDiag  1:
 RMSU=  3.51D-08    CP:  9.84D-01  1.96D+00  9.77D-01  8.46D-01  1.29D+00
                    CP:  1.39D+00  1.64D+00  2.13D+00  2.49D+00  3.00D+00
                    CP:  3.00D+00  3.00D+00  3.00D+00  3.00D+00  3.00D+00
                    CP:  2.76D+00  2.40D+00  1.24D+00
 E= -3017.10069583249     Delta-E=       -0.000000004249 Rises=F Damp=F
 DIIS: error= 2.48D-07 at cycle  19 NSaved=  19.
 NSaved=19 IEnMin=19 EnMin= -3017.10069583249     IErMin=19 ErrMin= 2.48D-07
 ErrMax= 2.48D-07  0.00D+00 EMaxC= 1.00D-01 BMatC= 2.82D-10 BMatP= 1.74D-09
 IDIUse=1 WtCom= 1.00D+00 WtEn= 0.00D+00
 Coeff-Com: -0.688D-05 0.110D-04 0.180D-04 0.206D-04-0.693D-04-0.740D-03
 Coeff-Com: -0.561D-03 0.200D-02 0.634D-02 0.641D-03-0.225D-01-0.424D-01
 Coeff-Com:  0.432D-01 0.170D+00-0.660D-01-0.225D+00-0.124D+00 0.271D+00
 Coeff-Com:  0.988D+00
 Coeff:     -0.688D-05 0.110D-04 0.180D-04 0.206D-04-0.693D-04-0.740D-03
 Coeff:     -0.561D-03 0.200D-02 0.634D-02 0.641D-03-0.225D-01-0.424D-01
 Coeff:      0.432D-01 0.170D+00-0.660D-01-0.225D+00-0.124D+00 0.271D+00
 Coeff:      0.988D+00
 Gap=     0.105 Goal=   None    Shift=    0.000
 Gap=     0.153 Goal=   None    Shift=    0.000
 RMSDP=1.13D-07 MaxDP=1.21D-05 DE=-4.25D-09 OVMax= 1.13D-04

 Cycle  20  Pass 1  IDiag  1:
 RMSU=  1.90D-08    CP:  9.84D-01  1.96D+00  9.77D-01  8.46D-01  1.29D+00
                    CP:  1.39D+00  1.64D+00  2.14D+00  2.49D+00  3.00D+00
                    CP:  3.00D+00  3.00D+00  3.00D+00  3.00D+00  3.00D+00
                    CP:  2.84D+00  2.56D+00  1.41D+00  1.53D+00
 E= -3017.10069583332     Delta-E=       -0.000000000829 Rises=F Damp=F
 DIIS: error= 1.02D-07 at cycle  20 NSaved=  20.
 NSaved=20 IEnMin=20 EnMin= -3017.10069583332     IErMin=20 ErrMin= 1.02D-07
 ErrMax= 1.02D-07  0.00D+00 EMaxC= 1.00D-01 BMatC= 5.83D-11 BMatP= 2.82D-10
 IDIUse=1 WtCom= 1.00D+00 WtEn= 0.00D+00
 Coeff-Com: -0.514D-06 0.153D-05 0.249D-04 0.465D-04 0.331D-04-0.430D-03
 Coeff-Com: -0.770D-03-0.304D-03 0.428D-02 0.536D-02-0.517D-02-0.367D-01
 Coeff-Com: -0.889D-02 0.802D-01 0.328D-01-0.844D-01-0.119D+00-0.180D-01
 Coeff-Com:  0.404D+00 0.747D+00
 Coeff:     -0.514D-06 0.153D-05 0.249D-04 0.465D-04 0.331D-04-0.430D-03
 Coeff:     -0.770D-03-0.304D-03 0.428D-02 0.536D-02-0.517D-02-0.367D-01
 Coeff:     -0.889D-02 0.802D-01 0.328D-01-0.844D-01-0.119D+00-0.180D-01
 Coeff:      0.404D+00 0.747D+00
 Gap=     0.105 Goal=   None    Shift=    0.000
 Gap=     0.153 Goal=   None    Shift=    0.000
 RMSDP=3.65D-08 MaxDP=4.26D-06 DE=-8.29D-10 OVMax= 3.46D-05

 Cycle  21  Pass 1  IDiag  1:
 Restarting incremental Fock formation.
 E= -3017.10069583320     Delta-E=        0.000000000124 Rises=F Damp=F
 DIIS: error= 4.53D-08 at cycle  21 NSaved=  20.
 NSaved=20 IEnMin=19 EnMin= -3017.10069583332     IErMin=20 ErrMin= 4.53D-08
 ErrMax= 4.53D-08  0.00D+00 EMaxC= 1.00D-01 BMatC= 1.33D-11 BMatP= 5.83D-11
 IDIUse=1 WtCom= 1.00D+00 WtEn= 0.00D+00
 Coeff-Com:  0.485D-06 0.894D-05 0.164D-04 0.220D-04-0.433D-04-0.240D-03
 Coeff-Com: -0.420D-03 0.623D-03 0.175D-02 0.181D-02-0.526D-02-0.977D-02
 Coeff-Com: -0.342D-02 0.230D-01 0.150D-01-0.126D-01-0.642D-01-0.804D-01
 Coeff-Com:  0.302D+00 0.832D+00
 Coeff:      0.485D-06 0.894D-05 0.164D-04 0.220D-04-0.433D-04-0.240D-03
 Coeff:     -0.420D-03 0.623D-03 0.175D-02 0.181D-02-0.526D-02-0.977D-02
 Coeff:     -0.342D-02 0.230D-01 0.150D-01-0.126D-01-0.642D-01-0.804D-01
 Coeff:      0.302D+00 0.832D+00
 Gap=     0.105 Goal=   None    Shift=    0.000
 Gap=     0.153 Goal=   None    Shift=    0.000
 RMSDP=6.26D-09 MaxDP=8.08D-07 DE= 1.24D-10 OVMax= 2.53D-06

 Error on total polarization charges =  0.02542
 SCF Done:  E(UM062X) =  -3017.10069583     A.U. after   21 cycles
            NFock= 21  Conv=0.63D-08     -V/T= 2.0032
 <Sx>= 0.0000 <Sy>= 0.0000 <Sz>= 0.5000 <S**2>= 0.7766 S= 0.5132
 <L.S>= 0.000000000000E+00
 KE= 3.007531864705D+03 PE=-1.541051203147D+04 EE= 5.252322398515D+03
 Annihilation of the first spin contaminant:
 S**2 before annihilation     0.7766,   after     0.7504
 Leave Link  502 at Fri Nov  7 00:33:21 2025, MaxMem= 30870077440 cpu:           76114.0 elap:            1201.4
 (Enter /public/software/gauss/g16/l601.exe)
 Copying SCF densities to generalized density rwf, IOpCl= 1 IROHF=0.

 **********************************************************************

            Population analysis using the SCF density.

 **********************************************************************

 Orbital symmetries:
 Alpha Orbitals:
       Occupied  (A) (A) (A) (A) (A) (A) (A) (A) (A) (A) (A) (A)
                 (A) (A) (A) (A) (A) (A) (A) (A) (A) (A) (A) (A)
                 (A) (A) (A) (A) (A) (A) (A) (A) (A) (A) (A) (A)
                 (A) (A) (A) (A) (A) (A) (A) (A) (A) (A) (A) (A)
                 (A) (A) (A) (A) (A) (A) (A) (A) (A) (A) (A) (A)
                 (A) (A) (A) (A) (A) (A) (A) (A) (A) (A) (A) (A)
                 (A) (A) (A) (A) (A) (A) (A) (A) (A) (A) (A) (A)
                 (A) (A) (A) (A) (A) (A) (A) (A) (A) (A) (A) (A)
                 (A) (A) (A) (A) (A) (A) (A) (A) (A) (A) (A) (A)
                 (A) (A) (A) (A) (A) (A) (A) (A) (A) (A) (A) (A)
                 (A) (A) (A) (A) (A) (A) (A) (A) (A) (A) (A) (A)
                 (A) (A) (A) (A) (A) (A) (A)
       Virtual   (A) (A) (A) (A) (A) (A) (A) (A) (A) (A) (A) (A)
                 (A) (A) (A) (A) (A) (A) (A) (A) (A) (A) (A) (A)
                 (A) (A) (A) (A) (A) (A) (A) (A) (A) (A) (A) (A)
                 (A) (A) (A) (A) (A) (A) (A) (A) (A) (A) (A) (A)
                 (A) (A) (A) (A) (A) (A) (A) (A) (A) (A) (A) (A)
                 (A) (A) (A) (A) (A) (A) (A) (A) (A) (A) (A) (A)
                 (A) (A) (A) (A) (A) (A) (A) (A) (A) (A) (A) (A)
                 (A) (A) (A) (A) (A) (A) (A) (A) (A) (A) (A) (A)
                 (A) (A) (A) (A) (A) (A) (A) (A) (A) (A) (A) (A)
                 (A) (A) (A) (A) (A) (A) (A) (A) (A) (A) (A) (A)
                 (A) (A) (A) (A) (A) (A) (A) (A) (A) (A) (A) (A)
                 (A) (A) (A) (A) (A) (A) (A) (A) (A) (A) (A) (A)
                 (A) (A) (A) (A) (A) (A) (A) (A) (A) (A) (A) (A)
                 (A) (A) (A) (A) (A) (A) (A) (A) (A) (A) (A) (A)
                 (A) (A) (A) (A) (A) (A) (A) (A) (A) (A) (A) (A)
                 (A) (A) (A) (A) (A) (A) (A) (A) (A) (A) (A) (A)
                 (A) (A) (A) (A) (A) (A) (A) (A) (A) (A) (A) (A)
                 (A) (A) (A) (A) (A) (A) (A) (A) (A) (A) (A) (A)
                 (A) (A) (A) (A) (A) (A) (A) (A) (A) (A) (A) (A)
                 (A) (A) (A) (A) (A) (A) (A) (A) (A) (A) (A) (A)
                 (A) (A) (A) (A) (A) (A) (A) (A) (A) (A) (A) (A)
                 (A) (A) (A) (A) (A) (A) (A) (A) (A) (A) (A) (A)
                 (A) (A) (A) (A) (A) (A) (A) (A) (A) (A) (A) (A)
                 (A) (A) (A) (A) (A) (A) (A) (A) (A) (A) (A) (A)
                 (A) (A) (A) (A) (A) (A) (A) (A) (A) (A) (A) (A)
                 (A) (A) (A) (A) (A) (A) (A) (A) (A) (A) (A) (A)
                 (A) (A) (A) (A) (A) (A) (A) (A) (A) (A) (A) (A)
                 (A) (A) (A) (A) (A) (A) (A) (A) (A) (A) (A) (A)
                 (A) (A) (A) (A) (A) (A) (A) (A) (A) (A) (A) (A)
                 (A) (A) (A) (A) (A) (A) (A) (A) (A) (A) (A) (A)
                 (A) (A) (A) (A) (A) (A) (A) (A) (A) (A) (A) (A)
                 (A) (A) (A) (A) (A) (A) (A) (A) (A) (A) (A) (A)
                 (A) (A) (A) (A) (A) (A) (A) (A) (A) (A) (A) (A)
                 (A) (A) (A) (A) (A) (A) (A) (A) (A) (A) (A) (A)
                 (A) (A) (A) (A) (A) (A) (A) (A) (A) (A) (A) (A)
                 (A) (A) (A) (A) (A) (A) (A) (A) (A) (A) (A) (A)
                 (A) (A) (A) (A) (A) (A) (A) (A) (A) (A) (A) (A)
                 (A) (A) (A) (A) (A) (A) (A) (A) (A) (A) (A) (A)
                 (A) (A) (A) (A) (A) (A) (A) (A) (A) (A) (A) (A)
                 (A) (A) (A) (A) (A) (A) (A) (A) (A) (A) (A) (A)
                 (A) (A) (A) (A) (A) (A) (A) (A) (A) (A) (A) (A)
                 (A) (A) (A) (A) (A) (A) (A) (A) (A) (A) (A) (A)
                 (A) (A) (A) (A) (A) (A) (A) (A) (A) (A) (A) (A)
                 (A) (A) (A) (A) (A) (A) (A) (A) (A) (A) (A) (A)
                 (A) (A) (A) (A) (A) (A) (A) (A) (A) (A) (A) (A)
                 (A) (A) (A) (A) (A) (A) (A) (A) (A) (A) (A) (A)
                 (A) (A) (A) (A) (A) (A) (A) (A) (A) (A) (A) (A)
                 (A) (A) (A) (A) (A) (A) (A) (A) (A) (A) (A) (A)
                 (A) (A) (A) (A) (A) (A) (A) (A) (A) (A) (A) (A)
                 (A) (A) (A) (A) (A) (A) (A) (A) (A) (A) (A) (A)
                 (A) (A) (A) (A) (A) (A) (A) (A) (A) (A) (A) (A)
                 (A) (A) (A) (A) (A) (A) (A) (A) (A) (A) (A) (A)
                 (A) (A) (A) (A) (A) (A) (A) (A) (A) (A) (A) (A)
                 (A) (A) (A) (A) (A) (A) (A) (A) (A) (A) (A) (A)
                 (A) (A) (A) (A) (A) (A) (A) (A) (A) (A) (A) (A)
                 (A) (A) (A) (A) (A) (A) (A) (A) (A) (A) (A) (A)
                 (A) (A) (A) (A) (A) (A) (A) (A) (A) (A) (A) (A)
                 (A) (A) (A) (A) (A) (A) (A) (A) (A) (A) (A) (A)
                 (A) (A) (A) (A) (A) (A) (A) (A) (A) (A) (A) (A)
                 (A) (A) (A) (A) (A) (A) (A) (A) (A) (A) (A) (A)
                 (A) (A) (A) (A) (A) (A) (A) (A) (A) (A) (A) (A)
                 (A) (A) (A) (A) (A) (A) (A) (A) (A) (A) (A) (A)
                 (A) (A) (A) (A) (A) (A) (A) (A) (A) (A) (A) (A)
                 (A) (A) (A) (A) (A) (A) (A) (A) (A) (A) (A) (A)
                 (A) (A) (A) (A) (A) (A) (A) (A) (A) (A) (A) (A)
                 (A) (A) (A) (A) (A) (A) (A) (A) (A) (A) (A) (A)
                 (A) (A) (A) (A) (A) (A) (A) (A) (A) (A) (A) (A)
                 (A) (A) (A) (A) (A) (A) (A) (A) (A) (A) (A) (A)
                 (A) (A) (A) (A) (A) (A) (A) (A) (A) (A) (A) (A)
                 (A) (A) (A) (A) (A) (A) (A) (A) (A) (A) (A) (A)
                 (A) (A) (A) (A) (A) (A) (A) (A) (A) (A) (A) (A)
                 (A) (A) (A) (A) (A) (A) (A) (A) (A) (A) (A) (A)
                 (A) (A) (A) (A) (A) (A) (A) (A) (A) (A) (A) (A)
                 (A) (A) (A) (A) (A) (A) (A) (A) (A) (A) (A) (A)
                 (A) (A) (A) (A) (A) (A) (A) (A) (A) (A) (A) (A)
                 (A) (A) (A) (A) (A) (A) (A) (A) (A) (A) (A) (A)
                 (A) (A) (A) (A) (A) (A) (A) (A) (A) (A) (A) (A)
                 (A) (A) (A) (A) (A) (A) (A) (A) (A) (A) (A) (A)
                 (A) (A) (A) (A) (A) (A) (A) (A) (A) (A) (A) (A)
                 (A) (A) (A) (A) (A) (A) (A) (A) (A) (A) (A) (A)
                 (A) (A) (A) (A) (A) (A) (A) (A) (A) (A) (A) (A)
                 (A) (A) (A) (A) (A) (A) (A) (A) (A) (A) (A) (A)
                 (A) (A) (A) (A) (A) (A) (A) (A) (A) (A) (A) (A)
                 (A) (A) (A) (A) (A) (A) (A) (A) (A) (A) (A) (A)
                 (A) (A) (A) (A) (A) (A) (A) (A) (A) (A) (A) (A)
                 (A) (A) (A) (A) (A) (A) (A) (A) (A) (A) (A) (A)
                 (A) (A) (A) (A) (A) (A) (A) (A) (A) (A) (A) (A)
                 (A) (A) (A) (A) (A) (A) (A) (A) (A) (A) (A) (A)
                 (A) (A) (A) (A) (A) (A) (A) (A) (A) (A) (A) (A)
                 (A) (A) (A) (A) (A) (A) (A) (A) (A) (A) (A) (A)
                 (A) (A) (A) (A) (A) (A) (A) (A) (A) (A) (A) (A)
                 (A) (A) (A) (A) (A) (A) (A) (A) (A) (A) (A) (A)
                 (A) (A) (A) (A) (A) (A) (A) (A) (A) (A) (A) (A)
                 (A) (A) (A) (A) (A) (A) (A) (A) (A) (A) (A) (A)
                 (A) (A) (A) (A) (A) (A) (A) (A) (A) (A) (A) (A)
                 (A) (A) (A) (A) (A) (A) (A) (A) (A) (A) (A) (A)
                 (A) (A) (A) (A) (A) (A) (A) (A) (A) (A) (A) (A)
                 (A) (A) (A) (A) (A) (A) (A) (A) (A) (A) (A) (A)
                 (A) (A) (A) (A) (A) (A) (A) (A) (A) (A)
 Beta  Orbitals:
       Occupied  (A) (A) (A) (A) (A) (A) (A) (A) (A) (A) (A) (A)
                 (A) (A) (A) (A) (A) (A) (A) (A) (A) (A) (A) (A)
                 (A) (A) (A) (A) (A) (A) (A) (A) (A) (A) (A) (A)
                 (A) (A) (A) (A) (A) (A) (A) (A) (A) (A) (A) (A)
                 (A) (A) (A) (A) (A) (A) (A) (A) (A) (A) (A) (A)
                 (A) (A) (A) (A) (A) (A) (A) (A) (A) (A) (A) (A)
                 (A) (A) (A) (A) (A) (A) (A) (A) (A) (A) (A) (A)
                 (A) (A) (A) (A) (A) (A) (A) (A) (A) (A) (A) (A)
                 (A) (A) (A) (A) (A) (A) (A) (A) (A) (A) (A) (A)
                 (A) (A) (A) (A) (A) (A) (A) (A) (A) (A) (A) (A)
                 (A) (A) (A) (A) (A) (A) (A) (A) (A) (A) (A) (A)
                 (A) (A) (A) (A) (A) (A)
       Virtual   (A) (A) (A) (A) (A) (A) (A) (A) (A) (A) (A) (A)
                 (A) (A) (A) (A) (A) (A) (A) (A) (A) (A) (A) (A)
                 (A) (A) (A) (A) (A) (A) (A) (A) (A) (A) (A) (A)
                 (A) (A) (A) (A) (A) (A) (A) (A) (A) (A) (A) (A)
                 (A) (A) (A) (A) (A) (A) (A) (A) (A) (A) (A) (A)
                 (A) (A) (A) (A) (A) (A) (A) (A) (A) (A) (A) (A)
                 (A) (A) (A) (A) (A) (A) (A) (A) (A) (A) (A) (A)
                 (A) (A) (A) (A) (A) (A) (A) (A) (A) (A) (A) (A)
                 (A) (A) (A) (A) (A) (A) (A) (A) (A) (A) (A) (A)
                 (A) (A) (A) (A) (A) (A) (A) (A) (A) (A) (A) (A)
                 (A) (A) (A) (A) (A) (A) (A) (A) (A) (A) (A) (A)
                 (A) (A) (A) (A) (A) (A) (A) (A) (A) (A) (A) (A)
                 (A) (A) (A) (A) (A) (A) (A) (A) (A) (A) (A) (A)
                 (A) (A) (A) (A) (A) (A) (A) (A) (A) (A) (A) (A)
                 (A) (A) (A) (A) (A) (A) (A) (A) (A) (A) (A) (A)
                 (A) (A) (A) (A) (A) (A) (A) (A) (A) (A) (A) (A)
                 (A) (A) (A) (A) (A) (A) (A) (A) (A) (A) (A) (A)
                 (A) (A) (A) (A) (A) (A) (A) (A) (A) (A) (A) (A)
                 (A) (A) (A) (A) (A) (A) (A) (A) (A) (A) (A) (A)
                 (A) (A) (A) (A) (A) (A) (A) (A) (A) (A) (A) (A)
                 (A) (A) (A) (A) (A) (A) (A) (A) (A) (A) (A) (A)
                 (A) (A) (A) (A) (A) (A) (A) (A) (A) (A) (A) (A)
                 (A) (A) (A) (A) (A) (A) (A) (A) (A) (A) (A) (A)
                 (A) (A) (A) (A) (A) (A) (A) (A) (A) (A) (A) (A)
                 (A) (A) (A) (A) (A) (A) (A) (A) (A) (A) (A) (A)
                 (A) (A) (A) (A) (A) (A) (A) (A) (A) (A) (A) (A)
                 (A) (A) (A) (A) (A) (A) (A) (A) (A) (A) (A) (A)
                 (A) (A) (A) (A) (A) (A) (A) (A) (A) (A) (A) (A)
                 (A) (A) (A) (A) (A) (A) (A) (A) (A) (A) (A) (A)
                 (A) (A) (A) (A) (A) (A) (A) (A) (A) (A) (A) (A)
                 (A) (A) (A) (A) (A) (A) (A) (A) (A) (A) (A) (A)
                 (A) (A) (A) (A) (A) (A) (A) (A) (A) (A) (A) (A)
                 (A) (A) (A) (A) (A) (A) (A) (A) (A) (A) (A) (A)
                 (A) (A) (A) (A) (A) (A) (A) (A) (A) (A) (A) (A)
                 (A) (A) (A) (A) (A) (A) (A) (A) (A) (A) (A) (A)
                 (A) (A) (A) (A) (A) (A) (A) (A) (A) (A) (A) (A)
                 (A) (A) (A) (A) (A) (A) (A) (A) (A) (A) (A) (A)
                 (A) (A) (A) (A) (A) (A) (A) (A) (A) (A) (A) (A)
                 (A) (A) (A) (A) (A) (A) (A) (A) (A) (A) (A) (A)
                 (A) (A) (A) (A) (A) (A) (A) (A) (A) (A) (A) (A)
                 (A) (A) (A) (A) (A) (A) (A) (A) (A) (A) (A) (A)
                 (A) (A) (A) (A) (A) (A) (A) (A) (A) (A) (A) (A)
                 (A) (A) (A) (A) (A) (A) (A) (A) (A) (A) (A) (A)
                 (A) (A) (A) (A) (A) (A) (A) (A) (A) (A) (A) (A)
                 (A) (A) (A) (A) (A) (A) (A) (A) (A) (A) (A) (A)
                 (A) (A) (A) (A) (A) (A) (A) (A) (A) (A) (A) (A)
                 (A) (A) (A) (A) (A) (A) (A) (A) (A) (A) (A) (A)
                 (A) (A) (A) (A) (A) (A) (A) (A) (A) (A) (A) (A)
                 (A) (A) (A) (A) (A) (A) (A) (A) (A) (A) (A) (A)
                 (A) (A) (A) (A) (A) (A) (A) (A) (A) (A) (A) (A)
                 (A) (A) (A) (A) (A) (A) (A) (A) (A) (A) (A) (A)
                 (A) (A) (A) (A) (A) (A) (A) (A) (A) (A) (A) (A)
                 (A) (A) (A) (A) (A) (A) (A) (A) (A) (A) (A) (A)
                 (A) (A) (A) (A) (A) (A) (A) (A) (A) (A) (A) (A)
                 (A) (A) (A) (A) (A) (A) (A) (A) (A) (A) (A) (A)
                 (A) (A) (A) (A) (A) (A) (A) (A) (A) (A) (A) (A)
                 (A) (A) (A) (A) (A) (A) (A) (A) (A) (A) (A) (A)
                 (A) (A) (A) (A) (A) (A) (A) (A) (A) (A) (A) (A)
                 (A) (A) (A) (A) (A) (A) (A) (A) (A) (A) (A) (A)
                 (A) (A) (A) (A) (A) (A) (A) (A) (A) (A) (A) (A)
                 (A) (A) (A) (A) (A) (A) (A) (A) (A) (A) (A) (A)
                 (A) (A) (A) (A) (A) (A) (A) (A) (A) (A) (A) (A)
                 (A) (A) (A) (A) (A) (A) (A) (A) (A) (A) (A) (A)
                 (A) (A) (A) (A) (A) (A) (A) (A) (A) (A) (A) (A)
                 (A) (A) (A) (A) (A) (A) (A) (A) (A) (A) (A) (A)
                 (A) (A) (A) (A) (A) (A) (A) (A) (A) (A) (A) (A)
                 (A) (A) (A) (A) (A) (A) (A) (A) (A) (A) (A) (A)
                 (A) (A) (A) (A) (A) (A) (A) (A) (A) (A) (A) (A)
                 (A) (A) (A) (A) (A) (A) (A) (A) (A) (A) (A) (A)
                 (A) (A) (A) (A) (A) (A) (A) (A) (A) (A) (A) (A)
                 (A) (A) (A) (A) (A) (A) (A) (A) (A) (A) (A) (A)
                 (A) (A) (A) (A) (A) (A) (A) (A) (A) (A) (A) (A)
                 (A) (A) (A) (A) (A) (A) (A) (A) (A) (A) (A) (A)
                 (A) (A) (A) (A) (A) (A) (A) (A) (A) (A) (A) (A)
                 (A) (A) (A) (A) (A) (A) (A) (A) (A) (A) (A) (A)
                 (A) (A) (A) (A) (A) (A) (A) (A) (A) (A) (A) (A)
                 (A) (A) (A) (A) (A) (A) (A) (A) (A) (A) (A) (A)
                 (A) (A) (A) (A) (A) (A) (A) (A) (A) (A) (A) (A)
                 (A) (A) (A) (A) (A) (A) (A) (A) (A) (A) (A) (A)
                 (A) (A) (A) (A) (A) (A) (A) (A) (A) (A) (A) (A)
                 (A) (A) (A) (A) (A) (A) (A) (A) (A) (A) (A) (A)
                 (A) (A) (A) (A) (A) (A) (A) (A) (A) (A) (A) (A)
                 (A) (A) (A) (A) (A) (A) (A) (A) (A) (A) (A) (A)
                 (A) (A) (A) (A) (A) (A) (A) (A) (A) (A) (A) (A)
                 (A) (A) (A) (A) (A) (A) (A) (A) (A) (A) (A) (A)
                 (A) (A) (A) (A) (A) (A) (A) (A) (A) (A) (A) (A)
                 (A) (A) (A) (A) (A) (A) (A) (A) (A) (A) (A) (A)
                 (A) (A) (A) (A) (A) (A) (A) (A) (A) (A) (A) (A)
                 (A) (A) (A) (A) (A) (A) (A) (A) (A) (A) (A) (A)
                 (A) (A) (A) (A) (A) (A) (A) (A) (A) (A) (A) (A)
                 (A) (A) (A) (A) (A) (A) (A) (A) (A) (A) (A) (A)
                 (A) (A) (A) (A) (A) (A) (A) (A) (A) (A) (A) (A)
                 (A) (A) (A) (A) (A) (A) (A) (A) (A) (A) (A) (A)
                 (A) (A) (A) (A) (A) (A) (A) (A) (A) (A) (A) (A)
                 (A) (A) (A) (A) (A) (A) (A) (A) (A) (A) (A) (A)
                 (A) (A) (A) (A) (A) (A) (A) (A) (A) (A) (A) (A)
                 (A) (A) (A) (A) (A) (A) (A) (A) (A) (A) (A) (A)
                 (A) (A) (A) (A) (A) (A) (A) (A) (A) (A) (A) (A)
                 (A) (A) (A) (A) (A) (A) (A) (A) (A) (A) (A)
 The electronic state is 2-A.
[...]
    23   Atom       -0.011363     -0.004184      0.015547
    24   Atom       -0.062904     -0.059189      0.122093
    25   Atom       -0.028965     -0.071735      0.100700
    26   Atom        0.001433      0.000233     -0.001666
    27   Atom        0.000603     -0.000098     -0.000505
    28   Atom       -0.000005      0.000513     -0.000508
    29   Atom        0.000594     -0.000521     -0.000074
    30   Atom       -0.003294      0.003089      0.000205
    31   Atom        0.004648      0.004138     -0.008787
    32   Atom       -0.053193     -0.061646      0.114840
    33   Atom        0.017279      0.016272     -0.033552
    34   Atom        0.023428     -0.015291     -0.008137
    35   Atom       -0.003425     -0.002489      0.005914
    36   Atom       -0.000602      0.002537     -0.001936
    37   Atom       -0.000063      0.001118     -0.001056
    38   Atom       -0.005557      0.007931     -0.002374
    39   Atom        0.001889      0.000037     -0.001927
    40   Atom        0.000650     -0.000241     -0.000409
    41   Atom        0.000367     -0.000120     -0.000247
    42   Atom        0.000282     -0.000129     -0.000153
    43   Atom        0.000420     -0.000055     -0.000365
    44   Atom        0.000276     -0.000045     -0.000232
    45   Atom        0.000227     -0.000067     -0.000160
    46   Atom        0.001970     -0.000142     -0.001828
    47   Atom       -0.003537      0.006187     -0.002650
    48   Atom       -0.000506      0.001952     -0.001446
    49   Atom       -0.000413      0.002221     -0.001809
 --------------------------------------------------------
                        XY            XZ            YZ
 --------------------------------------------------------
     1   Atom       -0.013536      0.303355     -0.005906
     2   Atom       -0.001696      0.126988     -0.000616
     3   Atom        0.009185      0.300575      0.003023
     4   Atom       -0.002105      0.069360      0.000525
     5   Atom       -0.006014      0.007845     -0.003203
     6   Atom        0.008380      0.028565      0.005281
     7   Atom        0.000661      0.028313      0.002936
     8   Atom       -0.000159     -0.006918     -0.031670
     9   Atom       -0.002832     -0.005910      0.005395
    10   Atom        0.000575      0.001664     -0.024092
    11   Atom        0.000820      0.001205      0.002955
    12   Atom       -0.001357      0.008793     -0.019138
    13   Atom        0.011664     -0.045915     -0.020604
    14   Atom       -0.001077      0.000005      0.000358
    15   Atom       -0.001225     -0.000107      0.000151
    16   Atom       -0.000508      0.000028     -0.000324
    17   Atom       -0.000048      0.000213     -0.000061
    18   Atom        0.002985      0.003537      0.009082
    19   Atom       -0.000065      0.001306     -0.009197
    20   Atom        0.000132      0.000385      0.000201
    21   Atom       -0.000491      0.000587     -0.004990
    22   Atom       -0.001477      0.000306     -0.000651
    23   Atom       -0.002345      0.000132      0.013528
    24   Atom        0.000953     -0.020963     -0.011376
    25   Atom       -0.000033      0.041582      0.004013
    26   Atom        0.001343      0.000070      0.000375
    27   Atom        0.001407      0.000040      0.000219
    28   Atom        0.000453      0.000033     -0.000386
    29   Atom        0.000240     -0.000179     -0.000006
    30   Atom       -0.005015     -0.004904      0.008202
    31   Atom       -0.001072     -0.000058      0.002024
    32   Atom       -0.001398     -0.036448      0.003748
    33   Atom        0.003740      0.003603     -0.002766
    34   Atom       -0.005930      0.026765     -0.000963
    35   Atom        0.003956      0.013244      0.004806
    36   Atom       -0.000166     -0.001505      0.000242
    37   Atom       -0.001383     -0.002356      0.000950
    38   Atom        0.004730      0.000829      0.001536
    39   Atom        0.001008      0.000087      0.000157
    40   Atom       -0.000447     -0.000488      0.000239
    41   Atom       -0.000200     -0.000070     -0.000002
    42   Atom       -0.000200      0.000156     -0.000088
    43   Atom        0.000544      0.000448      0.000332
    44   Atom        0.000266      0.000087      0.000019
    45   Atom        0.000254     -0.000132     -0.000096
    46   Atom       -0.000670      0.000531     -0.000062
    47   Atom       -0.006237     -0.000131     -0.000965
    48   Atom        0.001232     -0.001930     -0.000790
    49   Atom       -0.000468     -0.001642      0.000537
 --------------------------------------------------------


 ---------------------------------------------------------------------------------
              Anisotropic Spin Dipole Couplings in Principal Axis System
 ---------------------------------------------------------------------------------

       Atom             a.u.   MegaHertz   Gauss  10(-4) cm-1        Axes

              Baa    -0.2110    15.268     5.448     5.093  0.5861  0.6506 -0.4829
     1 O(17)  Bbb    -0.1980    14.324     5.111     4.778 -0.4838  0.7591  0.4356
              Bcc     0.4090   -29.592   -10.559    -9.871  0.6500 -0.0217  0.7596
 
              Baa    -0.0888    -3.424    -1.222    -1.142  0.7658  0.1216 -0.6315
     2 N(14)  Bbb    -0.0812    -3.132    -1.117    -1.045 -0.0899  0.9926  0.0822
              Bcc     0.1700     6.556     2.339     2.187  0.6368 -0.0062  0.7710
 
              Baa    -0.2083    15.071     5.378     5.027  0.6911 -0.4336 -0.5783
     3 O(17)  Bbb    -0.1954    14.135     5.044     4.715  0.3228  0.9010 -0.2899
              Bcc     0.4036   -29.206   -10.422    -9.742  0.6467  0.0137  0.7626
 
              Baa    -0.0528    -7.082    -2.527    -2.362  0.7714  0.1215 -0.6247
     4 C(13)  Bbb    -0.0365    -4.894    -1.746    -1.632 -0.0898  0.9926  0.0821
              Bcc     0.0892    11.976     4.273     3.995  0.6300 -0.0073  0.7766
 
              Baa    -0.0096    -1.283    -0.458    -0.428  0.8215  0.3484 -0.4515
     5 C(13)  Bbb    -0.0020    -0.265    -0.094    -0.088 -0.0023  0.7937  0.6083
              Bcc     0.0115     1.548     0.552     0.516  0.5703 -0.4986  0.6528
 
              Baa    -0.0246    -3.298    -1.177    -1.100 -0.5229 -0.0122  0.8523
     6 C(13)  Bbb    -0.0166    -2.223    -0.793    -0.741 -0.1549  0.9846 -0.0809
              Bcc     0.0411     5.521     1.970     1.842  0.8382  0.1743  0.5167
 
              Baa    -0.0298    -4.001    -1.428    -1.335 -0.4703 -0.1061  0.8761
     7 C(13)  Bbb    -0.0084    -1.121    -0.400    -0.374 -0.0877  0.9935  0.0732
              Bcc     0.0382     5.122     1.828     1.709  0.8781  0.0424  0.4765
 
              Baa    -0.1432   -19.213    -6.856    -6.409  0.9957  0.0893  0.0232
     8 C(13)  Bbb    -0.1356   -18.192    -6.491    -6.068 -0.0908  0.9930  0.0748
              Bcc     0.2787    37.406    13.347    12.477 -0.0163 -0.0766  0.9969
 
              Baa    -0.0368    -4.937    -1.762    -1.647  0.0970 -0.0979  0.9905
     9 C(13)  Bbb     0.0140     1.873     0.668     0.625  0.4231  0.9048  0.0480
              Bcc     0.0228     3.064     1.093     1.022  0.9009 -0.4144 -0.1292
 
              Baa    -0.0641    -8.598    -3.068    -2.868 -0.6482  0.7545  0.1027
    10 C(13)  Bbb    -0.0625    -8.385    -2.992    -2.797  0.7614  0.6437  0.0766
              Bcc     0.1266    16.982     6.060     5.665  0.0083 -0.1279  0.9918
 
              Baa    -0.0081    -1.089    -0.388    -0.363 -0.0822 -0.2384  0.9677
    11 C(13)  Bbb     0.0029     0.393     0.140     0.131  0.7899 -0.6077 -0.0826
              Bcc     0.0052     0.695     0.248     0.232  0.6077  0.7576  0.2383
 
              Baa    -0.0664    -8.911    -3.180    -2.972  0.9957  0.0849 -0.0373
    12 C(13)  Bbb    -0.0608    -8.163    -2.913    -2.723 -0.0805  0.9911  0.1060
              Bcc     0.1272    17.074     6.093     5.695  0.0459 -0.1025  0.9937
 
              Baa    -0.0728    -2.985    -1.065    -0.996 -0.1785  0.9814  0.0712
    13 S(33)  Bbb    -0.0415    -1.703    -0.608    -0.568  0.9318  0.1454  0.3324
              Bcc     0.1143     4.688     1.673     1.564 -0.3159 -0.1257  0.9404
 
              Baa    -0.0017    -0.231    -0.083    -0.077 -0.0852 -0.2687  0.9594
    14 C(13)  Bbb    -0.0005    -0.068    -0.024    -0.023  0.4157  0.8655  0.2793
              Bcc     0.0022     0.300     0.107     0.100  0.9055 -0.4227 -0.0379
 
              Baa    -0.0013    -0.176    -0.063    -0.059  0.4421  0.8914 -0.1001
    15 C(13)  Bbb    -0.0004    -0.060    -0.021    -0.020  0.1112  0.0563  0.9922
              Bcc     0.0018     0.236     0.084     0.079  0.8901 -0.4498 -0.0742
 
              Baa    -0.0007    -0.095    -0.034    -0.032  0.1671  0.3309  0.9288
    16 C(13)  Bbb    -0.0002    -0.023    -0.008    -0.008  0.8115  0.4888 -0.3202
              Bcc     0.0009     0.119     0.042     0.040 -0.5599  0.8072 -0.1868
 
              Baa    -0.0006    -0.086    -0.031    -0.029  0.0214  0.9956  0.0914
    17 C(13)  Bbb    -0.0001    -0.012    -0.004    -0.004 -0.2740 -0.0821  0.9582
              Bcc     0.0007     0.098     0.035     0.033  0.9615 -0.0455  0.2710
 
              Baa    -0.0069    -0.281    -0.100    -0.094 -0.4767 -0.5250  0.7051
    18 S(33)  Bbb    -0.0059    -0.241    -0.086    -0.080  0.8420 -0.5031  0.1947
              Bcc     0.0127     0.523     0.186     0.174  0.2525  0.6865  0.6819
 
              Baa    -0.0108    -0.416    -0.148    -0.139  0.9896 -0.1104 -0.0918
    19 N(14)  Bbb    -0.0075    -0.290    -0.103    -0.097  0.1372  0.9161  0.3768
              Bcc     0.0183     0.705     0.252     0.235  0.0425 -0.3855  0.9217
 
              Baa    -0.0021    -0.360    -0.128    -0.120 -0.1195 -0.0589  0.9911
    20 B(11)  Bbb     0.0009     0.153     0.055     0.051 -0.6509  0.7584 -0.0334
              Bcc     0.0012     0.207     0.074     0.069  0.7497  0.6491  0.1290
 
              Baa    -0.0041    -2.047    -0.730    -0.683  0.7627 -0.2888 -0.5787
    21 F(19)  Bbb    -0.0036    -1.788    -0.638    -0.596  0.6437  0.4261  0.6357
              Bcc     0.0076     3.835     1.368     1.279 -0.0630  0.8573 -0.5109
 
              Baa    -0.0030    -1.526    -0.545    -0.509 -0.1393  0.0585  0.9885
    22 F(19)  Bbb    -0.0018    -0.913    -0.326    -0.305  0.9632  0.2396  0.1215
              Bcc     0.0049     2.439     0.870     0.814 -0.2298  0.9691 -0.0897
 
              Baa    -0.0134    -0.516    -0.184    -0.172  0.7333  0.6146 -0.2908
    23 N(14)  Bbb    -0.0091    -0.350    -0.125    -0.117  0.6793 -0.6447  0.3506
              Bcc     0.0225     0.866     0.309     0.289 -0.0280  0.4546  0.8902
 
              Baa    -0.0653    -8.758    -3.125    -2.922  0.9917  0.0588  0.1145
    24 C(13)  Bbb    -0.0599    -8.035    -2.867    -2.680 -0.0654  0.9964  0.0548
              Bcc     0.1251    16.793     5.992     5.602 -0.1109 -0.0618  0.9919
 
              Baa    -0.0719    -2.946    -1.051    -0.983  0.0304  0.9991 -0.0306
    25 S(33)  Bbb    -0.0411    -1.685    -0.601    -0.562  0.9592 -0.0377 -0.2802
              Bcc     0.1130     4.632     1.653     1.545  0.2811  0.0208  0.9595
 
              Baa    -0.0018    -0.235    -0.084    -0.078  0.0782 -0.2360  0.9686
    26 C(13)  Bbb    -0.0006    -0.076    -0.027    -0.026 -0.5465  0.8024  0.2397
              Bcc     0.0023     0.312     0.111     0.104  0.8338  0.5481  0.0662
 
              Baa    -0.0012    -0.165    -0.059    -0.055 -0.5937  0.7786 -0.2034
    27 C(13)  Bbb    -0.0005    -0.065    -0.023    -0.022 -0.1837  0.1149  0.9762
              Bcc     0.0017     0.230     0.082     0.077  0.7834  0.6169  0.0748
 
              Baa    -0.0007    -0.093    -0.033    -0.031 -0.2997  0.3911  0.8702
    28 C(13)  Bbb    -0.0002    -0.021    -0.008    -0.007  0.8428 -0.3190  0.4336
              Bcc     0.0009     0.114     0.041     0.038  0.4471  0.8633 -0.2340
 
              Baa    -0.0006    -0.077    -0.027    -0.026 -0.2103  0.9755 -0.0642
    29 C(13)  Bbb    -0.0001    -0.015    -0.005    -0.005  0.2086  0.1089  0.9719
              Bcc     0.0007     0.092     0.033     0.031  0.9551  0.1910 -0.2264
 
              Baa    -0.0070    -0.288    -0.103    -0.096  0.5206 -0.3673  0.7708
    30 S(33)  Bbb    -0.0060    -0.245    -0.087    -0.082  0.7569  0.6163 -0.2176
              Bcc     0.0130     0.532     0.190     0.178 -0.3951  0.6967  0.5988
 
              Baa    -0.0091    -1.221    -0.436    -0.407 -0.0077 -0.1518  0.9884
    31 C(13)  Bbb     0.0035     0.466     0.166     0.156  0.6731  0.7302  0.1174
              Bcc     0.0056     0.754     0.269     0.252  0.7395 -0.6662 -0.0965
 
              Baa    -0.0620    -8.323    -2.970    -2.776  0.4279  0.9012  0.0691
    32 C(13)  Bbb    -0.0605    -8.114    -2.895    -2.707  0.8807 -0.4329  0.1924
              Bcc     0.1225    16.437     5.865     5.483 -0.2033  0.0215  0.9789
 
              Baa    -0.0340    -4.561    -1.627    -1.521 -0.0744  0.0603  0.9954
    33 C(13)  Bbb     0.0134     1.801     0.643     0.601 -0.6464  0.7572 -0.0942
              Bcc     0.0206     2.760     0.985     0.920  0.7594  0.6504  0.0173
 
              Baa    -0.0240    -3.216    -1.148    -1.073 -0.4997 -0.2494  0.8296
    34 C(13)  Bbb    -0.0153    -2.057    -0.734    -0.686 -0.0371  0.9630  0.2671
              Bcc     0.0393     5.273     1.882     1.759  0.8654 -0.1027  0.4904
 
              Baa    -0.0128    -1.721    -0.614    -0.574  0.8216 -0.0504 -0.5678
    35 C(13)  Bbb    -0.0044    -0.593    -0.212    -0.198 -0.1314  0.9525 -0.2746
              Bcc     0.0172     2.314     0.826     0.772  0.5547  0.3002  0.7760
 
              Baa    -0.0029    -1.557    -0.555    -0.519  0.5439 -0.0206  0.8389
    36 H(1)   Bbb     0.0003     0.184     0.066     0.061  0.8341  0.1226 -0.5378
              Bcc     0.0026     1.373     0.490     0.458 -0.0918  0.9922  0.0838
 
              Baa    -0.0030    -1.586    -0.566    -0.529  0.6397  0.0380  0.7677
    37 H(1)   Bbb    -0.0002    -0.119    -0.043    -0.040  0.4634  0.7778 -0.4246
              Bcc     0.0032     1.705     0.608     0.569 -0.6132  0.6274  0.4799
 
              Baa    -0.0071    -3.775    -1.347    -1.259  0.9533 -0.2931 -0.0724
    38 H(1)   Bbb    -0.0026    -1.384    -0.494    -0.462  0.0270 -0.1562  0.9874
              Bcc     0.0097     5.159     1.841     1.721  0.3007  0.9432  0.1410
 
              Baa    -0.0019    -1.035    -0.369    -0.345 -0.0020 -0.0782  0.9969
    39 H(1)   Bbb    -0.0004    -0.212    -0.076    -0.071 -0.4046  0.9118  0.0707
              Bcc     0.0023     1.247     0.445     0.416  0.9145  0.4032  0.0335
 
              Baa    -0.0006    -0.329    -0.118    -0.110  0.2558 -0.2833  0.9243
    40 H(1)   Bbb    -0.0004    -0.225    -0.080    -0.075  0.4380  0.8863  0.1504
              Bcc     0.0010     0.554     0.198     0.185  0.8618 -0.3663 -0.3508
 
              Baa    -0.0003    -0.140    -0.050    -0.047  0.1958  0.2889  0.9371
    41 H(1)   Bbb    -0.0002    -0.098    -0.035    -0.033  0.2835  0.8981 -0.3361
              Bcc     0.0004     0.237     0.085     0.079  0.9388 -0.3315 -0.0940
 
              Baa    -0.0002    -0.123    -0.044    -0.041  0.0930  0.7491  0.6558
    42 H(1)   Bbb    -0.0002    -0.100    -0.036    -0.033 -0.4651 -0.5497  0.6939
              Bcc     0.0004     0.223     0.080     0.074  0.8803 -0.3696  0.2973
 
              Baa    -0.0006    -0.318    -0.114    -0.106 -0.2213 -0.3385  0.9146
    43 H(1)   Bbb    -0.0004    -0.217    -0.077    -0.072 -0.5983  0.7877  0.1468
              Bcc     0.0010     0.535     0.191     0.178  0.7701  0.5147  0.3769
 
              Baa    -0.0003    -0.136    -0.048    -0.045 -0.2977  0.2969  0.9073
    44 H(1)   Bbb    -0.0002    -0.098    -0.035    -0.033 -0.4012  0.8235 -0.4011
              Bcc     0.0004     0.233     0.083     0.078  0.8663  0.4835  0.1260
 
              Baa    -0.0002    -0.121    -0.043    -0.040 -0.2566  0.7657  0.5898
    45 H(1)   Bbb    -0.0002    -0.103    -0.037    -0.034  0.4945 -0.4203  0.7608
              Bcc     0.0004     0.224     0.080     0.075  0.8304  0.4869 -0.2708
 
              Baa    -0.0019    -1.015    -0.362    -0.338 -0.1389 -0.0182  0.9901
    46 H(1)   Bbb    -0.0003    -0.177    -0.063    -0.059  0.2672  0.9621  0.0552
              Bcc     0.0022     1.192     0.425     0.397  0.9536 -0.2722  0.1288
 
              Baa    -0.0067    -3.552    -1.267    -1.185  0.8872  0.4410  0.1353
    47 H(1)   Bbb    -0.0026    -1.404    -0.501    -0.468 -0.1513  0.0012  0.9885
              Bcc     0.0093     4.956     1.768     1.653 -0.4358  0.8975 -0.0677
 
              Baa    -0.0030    -1.583    -0.565    -0.528  0.6266 -0.0318  0.7787
    48 H(1)   Bbb    -0.0000    -0.025    -0.009    -0.008  0.6186 -0.5875 -0.5218
              Bcc     0.0030     1.608     0.574     0.536  0.4740  0.8086 -0.3485
 
              Baa    -0.0029    -1.549    -0.553    -0.517  0.5452 -0.0379  0.8374
    49 H(1)   Bbb     0.0004     0.221     0.079     0.074  0.7912  0.3533 -0.4992
              Bcc     0.0025     1.327     0.474     0.443 -0.2769  0.9348  0.2226
 

 ---------------------------------------------------------------------------------

 No NMR shielding tensors so no spin-rotation constants.
 Leave Link  601 at Fri Nov  7 00:33:23 2025, MaxMem= 30870077440 cpu:             148.5 elap:               2.6
 (Enter /public/software/gauss/g16/l9999.exe)
 1\1\GINC-CU015\SP\UM062X\def2TZVPP\C23H14B1F2N3O2S4(1-,2)\BAIDING\07-N
 ov-2025\0\\#p M062X/DEF2TZVPP scrf=(solvent=water) em=GD3\\Energy calc
 ulation for M100034833_reduced\\-1,2\O,0,-0.146677,7.946561,0.386585\N
 ,0,0.640595,7.186515,-0.255234\O,0,1.546123,7.665651,-1.003769\C,0,0.5
 07922,5.791783,-0.135322\C,0,-0.47089,5.246343,0.721991\C,0,-0.604707,
 3.877595,0.826122\C,0,0.235816,2.986242,0.103382\C,0,0.102316,1.542943
 ,0.21609\C,0,-1.180194,0.921935,0.294119\C,0,-2.484452,1.456862,0.2467
 74\C,0,-3.389716,0.398453,0.373842\C,0,-2.627914,-0.771393,0.459744\S,
 0,-3.173418,-2.452985,0.656788\C,0,-4.85834,-2.341555,0.142874\C,0,-5.
 968304,-2.301095,0.951244\C,0,-7.192743,-2.301036,0.2204\C,0,-7.003515
 ,-2.343608,-1.134806\S,0,-5.3219,-2.397423,-1.549702\N,0,-1.297848,-0.
 467999,0.411133\B,0,-0.146374,-1.467776,0.146218\F,0,-0.255768,-2.0038
 45,-1.144245\F,0,-0.188586,-2.511013,1.087185\N,0,1.169442,-0.673833,0
 .30211\C,0,2.423448,-1.179096,0.486721\S,0,2.701237,-2.930808,0.631742
 \C,0,4.410601,-3.049762,0.206042\C,0,5.460725,-3.260467,1.066188\C,0,6
 .711987,-3.404709,0.397173\C,0,6.602527,-3.303553,-0.963548\S,0,4.9625
 65,-3.044121,-1.460921\C,0,3.34869,-0.133567,0.586119\C,0,2.624917,1.0
 55297,0.457892\C,0,1.266762,0.719117,0.277353\C,0,1.223629,3.567842,-0
 .739082\C,0,1.354892,4.934682,-0.869326\H,0,-1.095216,5.909121,1.30736
 \H,0,-1.332035,3.476472,1.521512\H,0,-2.740005,2.499123,0.132514\H,0,-
 4.467687,0.45597,0.404997\H,0,-5.905656,-2.270219,2.032852\H,0,-8.1718
 22,-2.265916,0.68392\H,0,-7.752873,-2.344288,-1.91597\H,0,5.337348,-3.
 307439,2.141966\H,0,7.653392,-3.570284,0.908176\H,0,7.388658,-3.362839
 ,-1.70522\H,0,4.410182,-0.24372,0.752473\H,0,3.023498,2.05622,0.529552
 \H,0,1.857578,2.921881,-1.335117\H,0,2.088314,5.357922,-1.54358\\Versi
 on=ES64L-G16RevA.03\State=2-A\HF=-3017.1006958\S2=0.776629\S2-1=0.\S2A
 =0.750424\RMSD=6.265e-09\Dipole=-0.411783,-4.1889361,0.3446313\Quadrup
 ole=67.7306997,-93.7627324,26.0320326,-14.1002238,0.2109107,5.0679782\
 PG=C01 [X(C23H14B1F2N3O2S4)]\\@


 We make a living by what we get,
 we make a life by what we give.
                   -- Sir Winston Churchill
 Job cpu time:       0 days 21 hours 25 minutes 17.8 seconds.
 Elapsed time:       0 days  0 hours 20 minutes 17.7 seconds.
 File lengths (MBytes):  RWF=   1933 Int=      0 D2E=      0 Chk=    124 Scr=      1
 Normal termination of Gaussian 16 at Fri Nov  7 00:33:24 2025.
