 Entering Gaussian System, Link 0=g16
 Input=M100036085_reduced_sp.gjf
 Output=M100036085_reduced_sp.log
 Initial command:
 /public/software/gauss/g16/l1.exe "/public/home/baiding/1101_v2_sp/tmp_M100036085_reduced_sp_1568608/Gau-39877.inp" -scrdir="/public/home/baiding/1101_v2_sp/tmp_M100036085_reduced_sp_1568608/"
 Entering Link 1 = /public/software/gauss/g16/l1.exe PID=     39878.
  
 Copyright (c) 1988,1990,1992,1993,1995,1998,2003,2009,2016,
            Gaussian, Inc.  All Rights Reserved.
  
 This is part of the Gaussian(R) 16 program.  It is based on
 the Gaussian(R) 09 system (copyright 2009, Gaussian, Inc.),
 the Gaussian(R) 03 system (copyright 2003, Gaussian, Inc.),
 the Gaussian(R) 98 system (copyright 1998, Gaussian, Inc.),
 the Gaussian(R) 94 system (copyright 1995, Gaussian, Inc.),
 the Gaussian 92(TM) system (copyright 1992, Gaussian, Inc.),
 the Gaussian 90(TM) system (copyright 1990, Gaussian, Inc.),
 the Gaussian 88(TM) system (copyright 1988, Gaussian, Inc.),
 the Gaussian 86(TM) system (copyright 1986, Carnegie Mellon
 University), and the Gaussian 82(TM) system (copyright 1983,
 Carnegie Mellon University). Gaussian is a federally registered
 trademark of Gaussian, Inc.
  
 This software contains proprietary and confidential information,
 including trade secrets, belonging to Gaussian, Inc.
  
 This software is provided under written license and may be
 used, copied, transmitted, or stored only in accord with that
 written license.
  
 The following legend is applicable only to US Government
 contracts under FAR:
  
                    RESTRICTED RIGHTS LEGEND
  
 Use, reproduction and disclosure by the US Government is
 subject to restrictions as set forth in subparagraphs (a)
 and (c) of the Commercial Computer Software - Restricted
 Rights clause in FAR 52.227-19.
  
 Gaussian, Inc.
 340 Quinnipiac St., Bldg. 40, Wallingford CT 06492
  
  
 ---------------------------------------------------------------
 Warning -- This program may not be used in any manner that
 competes with the business of Gaussian, Inc. or will provide
 assistance to any competitor of Gaussian, Inc.  The licensee
 of this program is prohibited from giving any competitor of
 Gaussian, Inc. access to this program.  By using this program,
 the user acknowledges that Gaussian, Inc. is engaged in the
 business of creating and licensing software in the field of
 computational chemistry and represents and warrants to the
 licensee that it is not a competitor of Gaussian, Inc. and that
 it will not use this program in any manner prohibited above.
 ---------------------------------------------------------------
  

 Cite this work as:
 Gaussian 16, Revision A.03,
 M. J. Frisch, G. W. Trucks, H. B. Schlegel, G. E. Scuseria, 
 M. A. Robb, J. R. Cheeseman, G. Scalmani, V. Barone, 
 G. A. Petersson, H. Nakatsuji, X. Li, M. Caricato, A. V. Marenich, 
 J. Bloino, B. G. Janesko, R. Gomperts, B. Mennucci, H. P. Hratchian, 
 J. V. Ortiz, A. F. Izmaylov, J. L. Sonnenberg, D. Williams-Young, 
 F. Ding, F. Lipparini, F. Egidi, J. Goings, B. Peng, A. Petrone, 
 T. Henderson, D. Ranasinghe, V. G. Zakrzewski, J. Gao, N. Rega, 
 G. Zheng, W. Liang, M. Hada, M. Ehara, K. Toyota, R. Fukuda, 
 J. Hasegawa, M. Ishida, T. Nakajima, Y. Honda, O. Kitao, H. Nakai, 
 T. Vreven, K. Throssell, J. A. Montgomery, Jr., J. E. Peralta, 
 F. Ogliaro, M. J. Bearpark, J. J. Heyd, E. N. Brothers, K. N. Kudin, 
 V. N. Staroverov, T. A. Keith, R. Kobayashi, J. Normand, 
 K. Raghavachari, A. P. Rendell, J. C. Burant, S. S. Iyengar, 
 J. Tomasi, M. Cossi, J. M. Millam, M. Klene, C. Adamo, R. Cammi, 
 J. W. Ochterski, R. L. Martin, K. Morokuma, O. Farkas, 
 J. B. Foresman, and D. J. Fox, Gaussian, Inc., Wallingford CT, 2016.
 
 ******************************************
 Gaussian 16:  ES64L-G16RevA.03 25-Dec-2016
                 7-Nov-2025 
 ******************************************
 %nprocshared=64
 Will use up to   64 processors via shared memory.
 %mem=230GB
 %chk=M100036085_reduced_sp.chk
 ----------------------------------------------
 #p M062X/DEF2TZVPP scrf=(solvent=water) em=GD3
 ----------------------------------------------
 1/38=1,172=1/1;
 2/12=2,17=6,18=5,40=1/2;
 3/5=44,7=202,11=2,25=1,30=1,70=2201,72=1,74=-55,124=31/1,2,3;
 4//1;
 5/5=2,38=5,53=1/2;
 6/7=2,8=2,9=2,10=2,28=1/1;
 99/5=1,9=1/99;
 Leave Link    1 at Fri Nov  7 15:00:23 2025, MaxMem= 30870077440 cpu:              15.1 elap:               0.2
 (Enter /public/software/gauss/g16/l101.exe)
 -----------------------------------------
 Energy calculation for M100036085_reduced
 -----------------------------------------
 Symbolic Z-matrix:
 Charge = -1 Multiplicity = 2
 C                     5.70071  -3.22328  -0.30734 
 C                     4.35249  -2.62067  -0.0417 
 C                     3.18585  -3.37199   0.07097 
 C                     2.0939   -2.49462   0.22239 
 C                     0.69325  -2.79392   0.38779 
 C                     0.16424  -4.03943   0.2908 
 C                    -1.23714  -4.40785   0.46854 
 C                    -2.26063  -3.47932   0.76303 
 C                    -3.57741  -3.89246   0.91698 
 C                    -3.94004  -5.24484   0.78646 
 C                    -5.37445  -5.69129   0.96967 
 N                    -6.2758   -5.19437  -0.0963 
 C                    -5.95596  -5.74839  -1.41944 
 C                    -6.15573  -7.27625  -1.498 
 O                    -7.15959  -7.72575  -0.57409 
 C                    -8.21471  -6.76958  -0.45494 
 C                    -7.70086  -5.4722    0.20351 
 C                    -2.92848  -6.16901   0.49848 
 C                    -1.60485  -5.7615    0.34242 
 N                     2.57368  -1.20838   0.20702 
 C                     3.96116  -1.2453    0.07328 
 C                     4.71093  -0.03936   0.00339 
 C                     6.17818  -0.08266  -0.01021 
 C                     6.90115  -0.70905   1.03317 
 C                     8.28246  -0.74361   1.03488 
 C                     8.99526  -0.16925  -0.03979 
 N                     10.40003  -0.21356  -0.05486 
 O                     11.03561   0.31954  -1.02164 
 O                     11.02103  -0.78656   0.89835 
 C                     8.2967    0.44928  -1.09919 
 C                     6.91626   0.49992  -1.06828 
 C                     4.03237   1.20862  -0.05471 
 C                     4.50574   2.55852   0.05199 
 C                     5.89146   3.08141   0.292 
 C                     3.38333   3.37711  -0.04109 
 C                     2.23945   2.56548  -0.1726 
 C                     0.8563    2.9467   -0.31567 
 C                     0.39986   4.21774  -0.18735 
 C                    -0.97931   4.66923  -0.34756 
 C                    -1.27168   6.03758  -0.16241 
 C                    -2.56601   6.52679  -0.29986 
 C                    -3.62928   5.67283  -0.62944 
 C                    -5.03836   6.20163  -0.79751 
 N                    -5.63045   6.69599   0.46659 
 C                    -5.97916   5.60134   1.40443 
 C                    -7.45703   5.17205   1.30102 
 O                    -7.9364    5.33008  -0.03664 
 C                    -7.98535   6.71651  -0.41011 
 C                    -6.82638   7.51382   0.22296 
 C                    -3.3428    4.3122   -0.8186 
 C                    -2.04991   3.81516  -0.68178 
 N                     2.64296   1.25322  -0.16522 
 B                     1.69628   0.05037   0.03596 
 F                     0.84466  -0.09423  -1.07798 
 F                     0.89184   0.24554   1.17658 
 H                     6.33295  -3.26443   0.58569 
 H                     5.57338  -4.24831  -0.66773 
 H                     6.2567   -2.66285  -1.06427 
 H                     3.12629  -4.45177   0.04151 
 H                     0.05098  -1.95213   0.62387 
 H                     0.82672  -4.87013   0.05393 
 H                    -2.02216  -2.42628   0.87491 
 H                    -4.34113  -3.15507   1.14828 
 H                    -5.39694  -6.7859    1.06971 
 H                    -5.75366  -5.28286   1.91272 
 H                    -6.60378  -5.24904  -2.14778 
 H                    -4.92603  -5.50112  -1.69012 
 H                    -6.42791  -7.56717  -2.52443 
 H                    -5.24257  -7.81352  -1.2261 
 H                    -8.64334  -6.56328  -1.44667 
 H                    -8.99546  -7.23398   0.15361 
 H                    -8.32114  -4.63594  -0.14644 
 H                    -7.81818  -5.52728   1.28863 
 H                    -3.18033  -7.22178   0.39917 
 H                    -0.83787  -6.4984    0.11893 
 H                     6.35755  -1.14369   1.86566 
 H                     8.82585  -1.197     1.8538 
 H                     8.8491    0.86941  -1.92971 
 H                     6.38308   0.96774  -1.88941 
 H                     6.42724   2.4903    1.04012 
 H                     6.50887   3.0845   -0.61229 
 H                     5.83079   4.11252   0.65243 
 H                     3.38807   4.45857  -0.01401 
 H                     0.16504   2.14706  -0.56021 
 H                     1.10986   5.00349   0.06471 
 H                    -0.46274   6.71886   0.08853 
 H                    -2.75375   7.58709  -0.15489 
 H                    -5.01543   7.05528  -1.48482 
 H                    -5.65167   5.42324  -1.27283 
 H                    -5.32377   4.75142   1.20185 
 H                    -5.78064   5.91834   2.43695 
 H                    -7.5751    4.1154    1.55613 
 H                    -8.08463   5.7538    1.99202 
 H                    -7.92837   6.73096  -1.50232 
 H                    -8.95097   7.15487  -0.11361 
 H                    -6.57068   8.35974  -0.42235 
 H                    -7.14258   7.93027   1.18554 
 H                    -4.14952   3.63273  -1.08156 
 H                    -1.87328   2.75537  -0.83641 
 
 ITRead=  0  0  0  0  0  0  0  0  0  0  0  0  0  0  0  0  0  0  0  0
 ITRead=  0  0  0  0  0  0  0  0  0  0  0  0  0  0  0  0  0  0  0  0
 ITRead=  0  0  0  0  0  0  0  0  0  0  0  0  0  0  0  0  0  0  0  0
 ITRead=  0  0  0  0  0  0  0  0  0  0  0  0  0  0  0  0  0  0  0  0
 ITRead=  0  0  0  0  0  0  0  0  0  0  0  0  0  0  0  0  0  0  0
 MicOpt= -1 -1 -1 -1 -1 -1 -1 -1 -1 -1 -1 -1 -1 -1 -1 -1 -1 -1 -1 -1
 MicOpt= -1 -1 -1 -1 -1 -1 -1 -1 -1 -1 -1 -1 -1 -1 -1 -1 -1 -1 -1 -1
 MicOpt= -1 -1 -1 -1 -1 -1 -1 -1 -1 -1 -1 -1 -1 -1 -1 -1 -1 -1 -1 -1
 MicOpt= -1 -1 -1 -1 -1 -1 -1 -1 -1 -1 -1 -1 -1 -1 -1 -1 -1 -1 -1 -1
 MicOpt= -1 -1 -1 -1 -1 -1 -1 -1 -1 -1 -1 -1 -1 -1 -1 -1 -1 -1 -1
 NAtoms=     99 NQM=       99 NQMF=       0 NMMI=      0 NMMIF=      0
                NMic=       0 NMicF=      0.
                    Isotopes and Nuclear Properties:
 (Nuclear quadrupole moments (NQMom) in fm**2, nuclear magnetic moments (NMagM)
  in nuclear magnetons)

  Atom         1           2           3           4           5           6           7           8           9          10
 IAtWgt=          12          12          12          12          12          12          12          12          12          12
 AtmWgt=  12.0000000  12.0000000  12.0000000  12.0000000  12.0000000  12.0000000  12.0000000  12.0000000  12.0000000  12.0000000
 NucSpn=           0           0           0           0           0           0           0           0           0           0
 AtZEff=  -0.0000000  -0.0000000  -0.0000000  -0.0000000  -0.0000000  -0.0000000  -0.0000000  -0.0000000  -0.0000000  -0.0000000
 NQMom=    0.0000000   0.0000000   0.0000000   0.0000000   0.0000000   0.0000000   0.0000000   0.0000000   0.0000000   0.0000000
 NMagM=    0.0000000   0.0000000   0.0000000   0.0000000   0.0000000   0.0000000   0.0000000   0.0000000   0.0000000   0.0000000
 AtZNuc=   6.0000000   6.0000000   6.0000000   6.0000000   6.0000000   6.0000000   6.0000000   6.0000000   6.0000000   6.0000000

  Atom        11          12          13          14          15          16          17          18          19          20
 IAtWgt=          12          14          12          12          16          12          12          12          12          14
 AtmWgt=  12.0000000  14.0030740  12.0000000  12.0000000  15.9949146  12.0000000  12.0000000  12.0000000  12.0000000  14.0030740
 NucSpn=           0           2           0           0           0           0           0           0           0           2
 AtZEff=  -0.0000000  -0.0000000  -0.0000000  -0.0000000  -0.0000000  -0.0000000  -0.0000000  -0.0000000  -0.0000000  -0.0000000
 NQMom=    0.0000000   2.0440000   0.0000000   0.0000000   0.0000000   0.0000000   0.0000000   0.0000000   0.0000000   2.0440000
 NMagM=    0.0000000   0.4037610   0.0000000   0.0000000   0.0000000   0.0000000   0.0000000   0.0000000   0.0000000   0.4037610
 AtZNuc=   6.0000000   7.0000000   6.0000000   6.0000000   8.0000000   6.0000000   6.0000000   6.0000000   6.0000000   7.0000000

  Atom        21          22          23          24          25          26          27          28          29          30
 IAtWgt=          12          12          12          12          12          12          14          16          16          12
 AtmWgt=  12.0000000  12.0000000  12.0000000  12.0000000  12.0000000  12.0000000  14.0030740  15.9949146  15.9949146  12.0000000
 NucSpn=           0           0           0           0           0           0           2           0           0           0
 AtZEff=  -0.0000000  -0.0000000  -0.0000000  -0.0000000  -0.0000000  -0.0000000  -0.0000000  -0.0000000  -0.0000000  -0.0000000
 NQMom=    0.0000000   0.0000000   0.0000000   0.0000000   0.0000000   0.0000000   2.0440000   0.0000000   0.0000000   0.0000000
 NMagM=    0.0000000   0.0000000   0.0000000   0.0000000   0.0000000   0.0000000   0.4037610   0.0000000   0.0000000   0.0000000
 AtZNuc=   6.0000000   6.0000000   6.0000000   6.0000000   6.0000000   6.0000000   7.0000000   8.0000000   8.0000000   6.0000000

  Atom        31          32          33          34          35          36          37          38          39          40
 IAtWgt=          12          12          12          12          12          12          12          12          12          12
 AtmWgt=  12.0000000  12.0000000  12.0000000  12.0000000  12.0000000  12.0000000  12.0000000  12.0000000  12.0000000  12.0000000
 NucSpn=           0           0           0           0           0           0           0           0           0           0
 AtZEff=  -0.0000000  -0.0000000  -0.0000000  -0.0000000  -0.0000000  -0.0000000  -0.0000000  -0.0000000  -0.0000000  -0.0000000
 NQMom=    0.0000000   0.0000000   0.0000000   0.0000000   0.0000000   0.0000000   0.0000000   0.0000000   0.0000000   0.0000000
 NMagM=    0.0000000   0.0000000   0.0000000   0.0000000   0.0000000   0.0000000   0.0000000   0.0000000   0.0000000   0.0000000
 AtZNuc=   6.0000000   6.0000000   6.0000000   6.0000000   6.0000000   6.0000000   6.0000000   6.0000000   6.0000000   6.0000000

  Atom        41          42          43          44          45          46          47          48          49          50
 IAtWgt=          12          12          12          14          12          12          16          12          12          12
 AtmWgt=  12.0000000  12.0000000  12.0000000  14.0030740  12.0000000  12.0000000  15.9949146  12.0000000  12.0000000  12.0000000
 NucSpn=           0           0           0           2           0           0           0           0           0           0
 AtZEff=  -0.0000000  -0.0000000  -0.0000000  -0.0000000  -0.0000000  -0.0000000  -0.0000000  -0.0000000  -0.0000000  -0.0000000
 NQMom=    0.0000000   0.0000000   0.0000000   2.0440000   0.0000000   0.0000000   0.0000000   0.0000000   0.0000000   0.0000000
 NMagM=    0.0000000   0.0000000   0.0000000   0.4037610   0.0000000   0.0000000   0.0000000   0.0000000   0.0000000   0.0000000
 AtZNuc=   6.0000000   6.0000000   6.0000000   7.0000000   6.0000000   6.0000000   8.0000000   6.0000000   6.0000000   6.0000000

  Atom        51          52          53          54          55          56          57          58          59          60
 IAtWgt=          12          14          11          19          19           1           1           1           1           1
 AtmWgt=  12.0000000  14.0030740  11.0093053  18.9984033  18.9984033   1.0078250   1.0078250   1.0078250   1.0078250   1.0078250
 NucSpn=           0           2           3           1           1           1           1           1           1           1
 AtZEff=  -0.0000000  -0.0000000  -0.0000000  -0.0000000  -0.0000000  -0.0000000  -0.0000000  -0.0000000  -0.0000000  -0.0000000
 NQMom=    0.0000000   2.0440000   4.0590000   0.0000000   0.0000000   0.0000000   0.0000000   0.0000000   0.0000000   0.0000000
 NMagM=    0.0000000   0.4037610   2.6886370   2.6288670   2.6288670   2.7928460   2.7928460   2.7928460   2.7928460   2.7928460
 AtZNuc=   6.0000000   7.0000000   5.0000000   9.0000000   9.0000000   1.0000000   1.0000000   1.0000000   1.0000000   1.0000000

  Atom        61          62          63          64          65          66          67          68          69          70
 IAtWgt=           1           1           1           1           1           1           1           1           1           1
 AtmWgt=   1.0078250   1.0078250   1.0078250   1.0078250   1.0078250   1.0078250   1.0078250   1.0078250   1.0078250   1.0078250
 NucSpn=           1           1           1           1           1           1           1           1           1           1
 AtZEff=  -0.0000000  -0.0000000  -0.0000000  -0.0000000  -0.0000000  -0.0000000  -0.0000000  -0.0000000  -0.0000000  -0.0000000
 NQMom=    0.0000000   0.0000000   0.0000000   0.0000000   0.0000000   0.0000000   0.0000000   0.0000000   0.0000000   0.0000000
 NMagM=    2.7928460   2.7928460   2.7928460   2.7928460   2.7928460   2.7928460   2.7928460   2.7928460   2.7928460   2.7928460
 AtZNuc=   1.0000000   1.0000000   1.0000000   1.0000000   1.0000000   1.0000000   1.0000000   1.0000000   1.0000000   1.0000000

  Atom        71          72          73          74          75          76          77          78          79          80
 IAtWgt=           1           1           1           1           1           1           1           1           1           1
 AtmWgt=   1.0078250   1.0078250   1.0078250   1.0078250   1.0078250   1.0078250   1.0078250   1.0078250   1.0078250   1.0078250
 NucSpn=           1           1           1           1           1           1           1           1           1           1
 AtZEff=  -0.0000000  -0.0000000  -0.0000000  -0.0000000  -0.0000000  -0.0000000  -0.0000000  -0.0000000  -0.0000000  -0.0000000
 NQMom=    0.0000000   0.0000000   0.0000000   0.0000000   0.0000000   0.0000000   0.0000000   0.0000000   0.0000000   0.0000000
 NMagM=    2.7928460   2.7928460   2.7928460   2.7928460   2.7928460   2.7928460   2.7928460   2.7928460   2.7928460   2.7928460
 AtZNuc=   1.0000000   1.0000000   1.0000000   1.0000000   1.0000000   1.0000000   1.0000000   1.0000000   1.0000000   1.0000000

  Atom        81          82          83          84          85          86          87          88          89          90
 IAtWgt=           1           1           1           1           1           1           1           1           1           1
 AtmWgt=   1.0078250   1.0078250   1.0078250   1.0078250   1.0078250   1.0078250   1.0078250   1.0078250   1.0078250   1.0078250
 NucSpn=           1           1           1           1           1           1           1           1           1           1
 AtZEff=  -0.0000000  -0.0000000  -0.0000000  -0.0000000  -0.0000000  -0.0000000  -0.0000000  -0.0000000  -0.0000000  -0.0000000
 NQMom=    0.0000000   0.0000000   0.0000000   0.0000000   0.0000000   0.0000000   0.0000000   0.0000000   0.0000000   0.0000000
 NMagM=    2.7928460   2.7928460   2.7928460   2.7928460   2.7928460   2.7928460   2.7928460   2.7928460   2.7928460   2.7928460
 AtZNuc=   1.0000000   1.0000000   1.0000000   1.0000000   1.0000000   1.0000000   1.0000000   1.0000000   1.0000000   1.0000000

  Atom        91          92          93          94          95          96          97          98          99
 IAtWgt=           1           1           1           1           1           1           1           1           1
 AtmWgt=   1.0078250   1.0078250   1.0078250   1.0078250   1.0078250   1.0078250   1.0078250   1.0078250   1.0078250
 NucSpn=           1           1           1           1           1           1           1           1           1
 AtZEff=  -0.0000000  -0.0000000  -0.0000000  -0.0000000  -0.0000000  -0.0000000  -0.0000000  -0.0000000  -0.0000000
 NQMom=    0.0000000   0.0000000   0.0000000   0.0000000   0.0000000   0.0000000   0.0000000   0.0000000   0.0000000
 NMagM=    2.7928460   2.7928460   2.7928460   2.7928460   2.7928460   2.7928460   2.7928460   2.7928460   2.7928460
 AtZNuc=   1.0000000   1.0000000   1.0000000   1.0000000   1.0000000   1.0000000   1.0000000   1.0000000   1.0000000
 Leave Link  101 at Fri Nov  7 15:00:24 2025, MaxMem= 30870077440 cpu:               6.1 elap:               0.1
 (Enter /public/software/gauss/g16/l202.exe)
 Stoichiometry    C43H44BF2N5O4(1-,2)
 Framework group  C1[X(C43H44BF2N5O4)]
 Deg. of freedom   291
 Full point group                 C1      NOp   1
 Largest Abelian subgroup         C1      NOp   1
 Largest concise Abelian subgroup C1      NOp   1
                         Standard orientation:                         
 ---------------------------------------------------------------------
 Center     Atomic      Atomic             Coordinates (Angstroms)
 Number     Number       Type             X           Y           Z
 ---------------------------------------------------------------------
      1          6           0       -5.700712   -3.223275    0.307335
      2          6           0       -4.352493   -2.620666    0.041704
      3          6           0       -3.185846   -3.371993   -0.070973
      4          6           0       -2.093900   -2.494622   -0.222394
      5          6           0       -0.693250   -2.793922   -0.387794
      6          6           0       -0.164240   -4.039431   -0.290796
      7          6           0        1.237140   -4.407845   -0.468535
      8          6           0        2.260627   -3.479315   -0.763033
      9          6           0        3.577410   -3.892463   -0.916979
     10          6           0        3.940041   -5.244844   -0.786457
     11          6           0        5.374447   -5.691285   -0.969673
     12          7           0        6.275796   -5.194370    0.096301
     13          6           0        5.955961   -5.748388    1.419437
     14          6           0        6.155730   -7.276253    1.498002
     15          8           0        7.159586   -7.725754    0.574089
     16          6           0        8.214715   -6.769583    0.454936
     17          6           0        7.700864   -5.472198   -0.203512
     18          6           0        2.928483   -6.169013   -0.498478
     19          6           0        1.604847   -5.761495   -0.342424
     20          7           0       -2.573676   -1.208378   -0.207016
     21          6           0       -3.961160   -1.245299   -0.073282
     22          6           0       -4.710929   -0.039360   -0.003386
     23          6           0       -6.178177   -0.082657    0.010212
     24          6           0       -6.901145   -0.709045   -1.033169
     25          6           0       -8.282463   -0.743605   -1.034881
     26          6           0       -8.995265   -0.169251    0.039792
     27          7           0      -10.400033   -0.213561    0.054863
     28          8           0      -11.035609    0.319536    1.021639
     29          8           0      -11.021032   -0.786559   -0.898346
     30          6           0       -8.296700    0.449279    1.099187
     31          6           0       -6.916258    0.499916    1.068278
     32          6           0       -4.032373    1.208624    0.054707
     33          6           0       -4.505737    2.558520   -0.051991
     34          6           0       -5.891461    3.081409   -0.292002
     35          6           0       -3.383329    3.377110    0.041088
     36          6           0       -2.239449    2.565481    0.172596
     37          6           0       -0.856298    2.946699    0.315667
     38          6           0       -0.399859    4.217745    0.187347
     39          6           0        0.979314    4.669230    0.347556
     40          6           0        1.271683    6.037580    0.162413
     41          6           0        2.566009    6.526791    0.299858
     42          6           0        3.629276    5.672826    0.629439
     43          6           0        5.038361    6.201629    0.797512
     44          7           0        5.630447    6.695988   -0.466592
     45          6           0        5.979155    5.601336   -1.404429
     46          6           0        7.457030    5.172047   -1.301022
     47          8           0        7.936404    5.330084    0.036636
     48          6           0        7.985354    6.716507    0.410106
     49          6           0        6.826384    7.513819   -0.222963
     50          6           0        3.342804    4.312204    0.818602
     51          6           0        2.049908    3.815159    0.681782
     52          7           0       -2.642959    1.253216    0.165219
     53          5           0       -1.696280    0.050367   -0.035957
     54          9           0       -0.844664   -0.094226    1.077982
     55          9           0       -0.891842    0.245535   -1.176575
     56          1           0       -6.332950   -3.264425   -0.585693
     57          1           0       -5.573375   -4.248306    0.667730
     58          1           0       -6.256703   -2.662853    1.064267
     59          1           0       -3.126287   -4.451774   -0.041514
     60          1           0       -0.050975   -1.952132   -0.623869
     61          1           0       -0.826722   -4.870132   -0.053931
     62          1           0        2.022156   -2.426276   -0.874907
     63          1           0        4.341128   -3.155073   -1.148282
     64          1           0        5.396938   -6.785898   -1.069715
     65          1           0        5.753659   -5.282861   -1.912724
     66          1           0        6.603775   -5.249042    2.147783
     67          1           0        4.926025   -5.501120    1.690117
     68          1           0        6.427907   -7.567174    2.524430
     69          1           0        5.242570   -7.813519    1.226099
     70          1           0        8.643340   -6.563284    1.446674
     71          1           0        8.995461   -7.233980   -0.153614
     72          1           0        8.321143   -4.635944    0.146439
     73          1           0        7.818178   -5.527275   -1.288629
     74          1           0        3.180334   -7.221775   -0.399174
     75          1           0        0.837872   -6.498395   -0.118930
     76          1           0       -6.357554   -1.143686   -1.865661
     77          1           0       -8.825850   -1.197003   -1.853795
     78          1           0       -8.849100    0.869406    1.929710
     79          1           0       -6.383082    0.967744    1.889409
     80          1           0       -6.427240    2.490303   -1.040115
     81          1           0       -6.508865    3.084503    0.612293
     82          1           0       -5.830790    4.112520   -0.652428
     83          1           0       -3.388070    4.458574    0.014007
     84          1           0       -0.165037    2.147059    0.560205
     85          1           0       -1.109862    5.003494   -0.064707
     86          1           0        0.462739    6.718856   -0.088529
     87          1           0        2.753747    7.587091    0.154887
     88          1           0        5.015426    7.055278    1.484818
     89          1           0        5.651668    5.423237    1.272833
     90          1           0        5.323766    4.751418   -1.201850
     91          1           0        5.780638    5.918335   -2.436947
     92          1           0        7.575099    4.115398   -1.556130
     93          1           0        8.084626    5.753800   -1.992018
     94          1           0        7.928371    6.730963    1.502324
     95          1           0        8.950971    7.154874    0.113607
     96          1           0        6.570678    8.359738    0.422350
     97          1           0        7.142583    7.930274   -1.185543
     98          1           0        4.149521    3.632734    1.081561
     99          1           0        1.873284    2.755366    0.836406
 ---------------------------------------------------------------------
 Rotational constants (GHZ):           0.0360388           0.0215921           0.0137899
 Leave Link  202 at Fri Nov  7 15:00:24 2025, MaxMem= 30870077440 cpu:               0.3 elap:               0.0
 (Enter /public/software/gauss/g16/l301.exe)
 Standard basis: def2TZVPP (5D, 7F)
 Ernie: Thresh=  0.10000D-02 Tol=  0.10000D-05 Strict=F.
 There are  2640 symmetry adapted cartesian basis functions of A   symmetry.
 There are  2321 symmetry adapted basis functions of A   symmetry.
  2321 basis functions,  3553 primitive gaussians,  2640 cartesian basis functions
   197 alpha electrons      196 beta electrons
       nuclear repulsion energy      6662.0497099302 Hartrees.
 IExCor= 4336 DFT=T Ex+Corr=M062X ExCW=0 ScaHFX=  0.540000
 ScaDFX=  1.000000  1.000000  1.000000  1.000000 ScalE2=  1.000000  1.000000
 IRadAn=      5 IRanWt=     -1 IRanGd=            0 ICorTp=0 IEmpDi=131
 NAtoms=   99 NActive=   99 NUniq=   99 SFac= 1.00D+00 NAtFMM=   60 NAOKFM=T Big=T
 Integral buffers will be    131072 words long.
 Raffenetti 2 integral format.
 Two-electron integral symmetry is turned on.
 R6Disp:  Grimme-D3 Dispersion energy=       -0.0077606162 Hartrees.
 Nuclear repulsion after empirical dispersion term =     6662.0419493141 Hartrees.
 ------------------------------------------------------------------------------
 Polarizable Continuum Model (PCM)
 =================================
 Model                : PCM.
 Atomic radii         : UFF (Universal Force Field).
 Polarization charges : Total charges.
 Charge compensation  : None.
 Solution method      : On-the-fly selection.
 Cavity type          : Scaled VdW (van der Waals Surface) (Alpha=1.100).
 Cavity algorithm     : GePol (No added spheres)
                        Default sphere list used, NSphG=   99.
                        Lebedev-Laikov grids with approx.  5.0 points / Ang**2.
                        Smoothing algorithm: York/Karplus (Gamma=1.0000).
                        Polarization charges: spherical gaussians, with
                                              point-specific exponents (IZeta= 3).
                        Self-potential: point-specific (ISelfS= 7).
                        Self-field    : sphere-specific E.n sum rule (ISelfD= 2).
 Solvent              : Water, Eps=  78.355300 Eps(inf)=   1.777849
 ------------------------------------------------------------------------------
 GePol: Number of generator spheres                  =      99
 GePol: Total number of spheres                      =      99
 GePol: Number of exposed spheres                    =      99 (100.00%)
 GePol: Number of points                             =    6754
 GePol: Average weight of points                     =       0.13
 GePol: Minimum weight of points                     =   0.16D-11
 GePol: Maximum weight of points                     =    0.20577
 GePol: Number of points with low weight             =     454
 GePol: Fraction of low-weight points (<1% of avg)   =       6.72%
 GePol: Cavity surface area                          =    855.482 Ang**2
 GePol: Cavity volume                                =    996.797 Ang**3
 Leave Link  301 at Fri Nov  7 15:00:24 2025, MaxMem= 30870077440 cpu:               4.0 elap:               0.1
 (Enter /public/software/gauss/g16/l302.exe)
 NPDir=0 NMtPBC=     1 NCelOv=     1 NCel=       1 NClECP=     1 NCelD=      1
         NCelK=      1 NCelE2=     1 NClLst=     1 CellRange=     0.0.
 One-electron integrals computed using PRISM.
 One-electron integral symmetry used in STVInt
   1 Symmetry operations used in ECPInt.
 ECPInt:  NShTT=  378015 NPrTT= 1056220 LenC2=  194332 LenP2D=  364814.
 LDataN:  DoStor=T MaxTD1= 6 Len=  172
 NBasis=  2321 RedAO= T EigKep=  5.55D-06  NBF=  2321
 NBsUse=  2321 1.00D-06 EigRej= -1.00D+00 NBFU=  2321
 Precomputing XC quadrature grid using
 IXCGrd= 4 IRadAn=           5 IRanWt=          -1 IRanGd=           0 AccXCQ= 0.00D+00.
 Generated NRdTot=       0 NPtTot=           0 NUsed=           0 NTot=          32
 NSgBfM=  2201  2201  2201  2201  2201 MxSgAt=    99 MxSgA2=    99.
 Leave Link  302 at Fri Nov  7 15:00:40 2025, MaxMem= 30870077440 cpu:            1051.2 elap:              16.5
 (Enter /public/software/gauss/g16/l303.exe)
 DipDrv:  MaxL=1.
 Leave Link  303 at Fri Nov  7 15:00:41 2025, MaxMem= 30870077440 cpu:              39.5 elap:               0.7
 (Enter /public/software/gauss/g16/l401.exe)
 ExpMin= 6.06D-02 ExpMax= 3.55D+04 ExpMxC= 1.21D+03 IAcc=3 IRadAn=         5 AccDes= 0.00D+00
 Harris functional with IExCor= 1009 and IRadAn=       5 diagonalized for initial guess.
 HarFok:  IExCor= 1009 AccDes= 0.00D+00 IRadAn=         5 IDoV= 1 UseB2=F ITyADJ=14
 ICtDFT=  3500011 ScaDFX=  1.000000  1.000000  1.000000  1.000000
 FoFCou: FMM=F IPFlag=           0 FMFlag=      100000 FMFlg1=        2001
         NFxFlg=           0 DoJE=T BraDBF=F KetDBF=T FulRan=T
         wScrn=  0.000000 ICntrl=       500 IOpCl=  0 I1Cent=   200000004 NGrid=           0
         NMat0=    1 NMatS0=      1 NMatT0=    0 NMatD0=    1 NMtDS0=    0 NMtDT0=    0
 Petite list used in FoFCou.
 Harris En= -2463.22744627311    
 JPrj=0 DoOrth=F DoCkMO=F.
 Initial guess <Sx>= 0.0000 <Sy>= 0.0000 <Sz>= 0.5000 <S**2>= 0.7500 S= 0.5000
 Leave Link  401 at Fri Nov  7 15:00:57 2025, MaxMem= 30870077440 cpu:            1008.5 elap:              15.8
 (Enter /public/software/gauss/g16/l502.exe)
 Integral symmetry usage will be decided dynamically.
 UHF open shell SCF:
 Using DIIS extrapolation, IDIIS=  1040.
 NGot= 30870077440 LenX= 30855947009 LenY= 30848974769
 Requested convergence on RMS density matrix=1.00D-08 within 128 cycles.
 Requested convergence on MAX density matrix=1.00D-06.
 Requested convergence on             energy=1.00D-06.
 No special actions if energy rises.
 Fock matrices will be formed incrementally for  20 cycles.

 Cycle   1  Pass 1  IDiag  1:
 FoFJK:  IHMeth= 1 ICntrl=       0 DoSepK=F KAlg= 0 I1Cent=           0 FoldK=F
 IRaf= 470000000 NMat=       1 IRICut=       1 DoRegI=T DoRafI=F ISym2E= 0 IDoP0=0 IntGTp=1.
 FoFCou: FMM=T IPFlag=           0 FMFlag=      100000 FMFlg1=        2001
         NFxFlg=           0 DoJE=F BraDBF=F KetDBF=F FulRan=T
         wScrn=  0.000000 ICntrl=         0 IOpCl=  1 I1Cent=           0 NGrid=           0
         NMat0=    1 NMatS0=      1 NMatT0=    0 NMatD0=    1 NMtDS0=    0 NMtDT0=    0
 Symmetry not used in FoFCou.
 FMM levels:  10  Number of levels for PrismC:   9
 Inv3:  Mode=1 IEnd=   136849548.
 Iteration    1 A*A^-1 deviation from unit magnitude is 1.29D-14 for   1646.
 Iteration    1 A*A^-1 deviation from orthogonality  is 7.88D-15 for   6035   1657.
 Iteration    1 A^-1*A deviation from unit magnitude is 9.55D-15 for   1664.
 Iteration    1 A^-1*A deviation from orthogonality  is 3.73D-15 for   4218   1542.
 E= -2463.09772487530    
 DIIS: error= 2.54D-02 at cycle   1 NSaved=   1.
 NSaved= 1 IEnMin= 1 EnMin= -2463.09772487530     IErMin= 1 ErrMin= 2.54D-02
 ErrMax= 2.54D-02  0.00D+00 EMaxC= 1.00D-01 BMatC= 6.63D+00 BMatP= 6.63D+00
 IDIUse=3 WtCom= 7.46D-01 WtEn= 2.54D-01
 Coeff-Com:  0.100D+01
 Coeff-En:   0.100D+01
 Coeff:      0.100D+01
 Gap=     0.054 Goal=   None    Shift=    0.000
 Gap=     0.125 Goal=   None    Shift=    0.000
 GapD=    0.054 DampG=0.500 DampE=0.500 DampFc=0.2500 IDamp=-1.
 Damping current iteration by 2.50D-01
 RMSDP=1.39D-03 MaxDP=3.58D-01              OVMax= 7.73D-01

 Cycle   2  Pass 1  IDiag  1:
 RMSU=  3.47D-04    CP:  9.99D-01
 E= -2463.53722339271     Delta-E=       -0.439498517404 Rises=F Damp=T
 DIIS: error= 1.06D-02 at cycle   2 NSaved=   2.
 NSaved= 2 IEnMin= 2 EnMin= -2463.53722339271     IErMin= 2 ErrMin= 1.06D-02
 ErrMax= 1.06D-02  0.00D+00 EMaxC= 1.00D-01 BMatC= 2.40D+00 BMatP= 6.63D+00
 IDIUse=3 WtCom= 8.94D-01 WtEn= 1.06D-01
 Coeff-Com: -0.117D+01 0.217D+01
 Coeff-En:   0.000D+00 0.100D+01
 Coeff:     -0.105D+01 0.205D+01
 Gap=     0.015 Goal=   None    Shift=    0.000
 Gap=     0.218 Goal=   None    Shift=    0.000
 RMSDP=8.11D-04 MaxDP=2.04D-01 DE=-4.39D-01 OVMax= 7.03D-01

 Cycle   3  Pass 1  IDiag  1:
 RMSU=  5.85D-04    CP:  9.95D-01  2.62D+00
 E= -2464.31619172829     Delta-E=       -0.778968335580 Rises=F Damp=F
 DIIS: error= 1.53D-02 at cycle   3 NSaved=   3.
 NSaved= 3 IEnMin= 3 EnMin= -2464.31619172829     IErMin= 2 ErrMin= 1.06D-02
 ErrMax= 1.53D-02  0.00D+00 EMaxC= 1.00D-01 BMatC= 4.05D-01 BMatP= 2.40D+00
 IDIUse=3 WtCom= 8.47D-01 WtEn= 1.53D-01
 Coeff-Com: -0.602D+00 0.100D+01 0.599D+00
 Coeff-En:   0.000D+00 0.000D+00 0.100D+01
 Coeff:     -0.510D+00 0.850D+00 0.660D+00
 Gap=     0.054 Goal=   None    Shift=    0.000
 Gap=     0.135 Goal=   None    Shift=    0.000
 RMSDP=2.45D-04 MaxDP=7.99D-02 DE=-7.79D-01 OVMax= 2.80D-01

 Cycle   4  Pass 1  IDiag  1:
 RMSU=  2.17D-04    CP:  9.87D-01  2.51D+00  8.21D-01
 E= -2464.38075882168     Delta-E=       -0.064567093392 Rises=F Damp=F
 DIIS: error= 7.75D-03 at cycle   4 NSaved=   4.
 NSaved= 4 IEnMin= 4 EnMin= -2464.38075882168     IErMin= 4 ErrMin= 7.75D-03
 ErrMax= 7.75D-03  0.00D+00 EMaxC= 1.00D-01 BMatC= 1.06D-01 BMatP= 4.05D-01
 IDIUse=3 WtCom= 9.22D-01 WtEn= 7.75D-02
 Coeff-Com: -0.111D+00 0.175D+00 0.357D+00 0.579D+00
 Coeff-En:   0.000D+00 0.000D+00 0.210D+00 0.790D+00
 Coeff:     -0.102D+00 0.161D+00 0.345D+00 0.596D+00
 Gap=     0.076 Goal=   None    Shift=    0.000
 Gap=     0.141 Goal=   None    Shift=    0.000
 RMSDP=1.09D-04 MaxDP=6.04D-02 DE=-6.46D-02 OVMax= 1.13D-01

 Cycle   5  Pass 1  IDiag  1:
 RMSU=  8.19D-05    CP:  9.90D-01  2.58D+00  8.64D-01  7.08D-01
 E= -2464.40263515580     Delta-E=       -0.021876334122 Rises=F Damp=F
 DIIS: error= 7.13D-04 at cycle   5 NSaved=   5.
 NSaved= 5 IEnMin= 5 EnMin= -2464.40263515580     IErMin= 5 ErrMin= 7.13D-04
 ErrMax= 7.13D-04  0.00D+00 EMaxC= 1.00D-01 BMatC= 5.39D-03 BMatP= 1.06D-01
 IDIUse=3 WtCom= 9.93D-01 WtEn= 7.13D-03
 Coeff-Com: -0.171D-01 0.242D-01 0.128D+00 0.290D+00 0.575D+00
 Coeff-En:   0.000D+00 0.000D+00 0.000D+00 0.000D+00 0.100D+01
 Coeff:     -0.169D-01 0.240D-01 0.127D+00 0.288D+00 0.578D+00
 Gap=     0.080 Goal=   None    Shift=    0.000
 Gap=     0.136 Goal=   None    Shift=    0.000
 RMSDP=4.20D-05 MaxDP=2.08D-02 DE=-2.19D-02 OVMax= 2.04D-02

 Cycle   6  Pass 1  IDiag  1:
 RMSU=  3.35D-05    CP:  9.88D-01  2.55D+00  8.49D-01  8.00D-01  8.96D-01
 E= -2464.40408513065     Delta-E=       -0.001449974850 Rises=F Damp=F
 DIIS: error= 2.17D-04 at cycle   6 NSaved=   6.
 NSaved= 6 IEnMin= 6 EnMin= -2464.40408513065     IErMin= 6 ErrMin= 2.17D-04
 ErrMax= 2.17D-04  0.00D+00 EMaxC= 1.00D-01 BMatC= 6.74D-04 BMatP= 5.39D-03
 IDIUse=3 WtCom= 9.98D-01 WtEn= 2.17D-03
 Coeff-Com:  0.337D-02-0.616D-02 0.122D-01 0.503D-01 0.277D+00 0.664D+00
 Coeff-En:   0.000D+00 0.000D+00 0.000D+00 0.000D+00 0.000D+00 0.100D+01
 Coeff:      0.337D-02-0.615D-02 0.121D-01 0.502D-01 0.276D+00 0.665D+00
 Gap=     0.083 Goal=   None    Shift=    0.000
 Gap=     0.137 Goal=   None    Shift=    0.000
 RMSDP=2.16D-05 MaxDP=1.39D-02 DE=-1.45D-03 OVMax= 1.54D-02

 Cycle   7  Pass 1  IDiag  1:
 RMSU=  1.32D-05    CP:  9.89D-01  2.56D+00  8.58D-01  7.89D-01  1.09D+00
                    CP:  1.05D+00
 E= -2464.40438205358     Delta-E=       -0.000296922924 Rises=F Damp=F
 DIIS: error= 1.02D-04 at cycle   7 NSaved=   7.
 NSaved= 7 IEnMin= 7 EnMin= -2464.40438205358     IErMin= 7 ErrMin= 1.02D-04
 ErrMax= 1.02D-04  0.00D+00 EMaxC= 1.00D-01 BMatC= 9.71D-05 BMatP= 6.74D-04
 IDIUse=3 WtCom= 9.99D-01 WtEn= 1.02D-03
 Coeff-Com:  0.359D-02-0.547D-02-0.206D-01-0.387D-01-0.135D-02 0.254D+00
 Coeff-Com:  0.808D+00
 Coeff-En:   0.000D+00 0.000D+00 0.000D+00 0.000D+00 0.000D+00 0.000D+00
 Coeff-En:   0.100D+01
 Coeff:      0.358D-02-0.546D-02-0.206D-01-0.387D-01-0.135D-02 0.254D+00
 Coeff:      0.808D+00
 Gap=     0.085 Goal=   None    Shift=    0.000
 Gap=     0.137 Goal=   None    Shift=    0.000
 RMSDP=1.26D-05 MaxDP=3.99D-03 DE=-2.97D-04 OVMax= 1.09D-02

 Cycle   8  Pass 1  IDiag  1:
 RMSU=  5.71D-06    CP:  9.89D-01  2.57D+00  8.58D-01  8.07D-01  1.16D+00
                    CP:  1.26D+00  1.37D+00
 E= -2464.40447115647     Delta-E=       -0.000089102894 Rises=F Damp=F
 DIIS: error= 7.39D-05 at cycle   8 NSaved=   8.
 NSaved= 8 IEnMin= 8 EnMin= -2464.40447115647     IErMin= 8 ErrMin= 7.39D-05
 ErrMax= 7.39D-05  0.00D+00 EMaxC= 1.00D-01 BMatC= 2.40D-05 BMatP= 9.71D-05
 IDIUse=1 WtCom= 1.00D+00 WtEn= 0.00D+00
 Coeff-Com: -0.284D-03 0.597D-03-0.818D-02-0.215D-01-0.538D-01-0.552D-01
 Coeff-Com:  0.306D+00 0.833D+00
 Coeff:     -0.284D-03 0.597D-03-0.818D-02-0.215D-01-0.538D-01-0.552D-01
 Coeff:      0.306D+00 0.833D+00
 Gap=     0.085 Goal=   None    Shift=    0.000
 Gap=     0.138 Goal=   None    Shift=    0.000
 RMSDP=7.72D-06 MaxDP=3.16D-03 DE=-8.91D-05 OVMax= 7.35D-03

 Cycle   9  Pass 1  IDiag  1:
 RMSU=  2.94D-06    CP:  9.89D-01  2.57D+00  8.60D-01  8.10D-01  1.21D+00
                    CP:  1.33D+00  1.74D+00  1.31D+00
 E= -2464.40449833172     Delta-E=       -0.000027175252 Rises=F Damp=F
 DIIS: error= 4.02D-05 at cycle   9 NSaved=   9.
 NSaved= 9 IEnMin= 9 EnMin= -2464.40449833172     IErMin= 9 ErrMin= 4.02D-05
 ErrMax= 4.02D-05  0.00D+00 EMaxC= 1.00D-01 BMatC= 5.09D-06 BMatP= 2.40D-05
 IDIUse=1 WtCom= 1.00D+00 WtEn= 0.00D+00
 Coeff-Com: -0.642D-03 0.102D-02 0.323D-02 0.321D-02-0.141D-01-0.841D-01
 Coeff-Com: -0.983D-01 0.217D+00 0.973D+00
 Coeff:     -0.642D-03 0.102D-02 0.323D-02 0.321D-02-0.141D-01-0.841D-01
 Coeff:     -0.983D-01 0.217D+00 0.973D+00
 Gap=     0.086 Goal=   None    Shift=    0.000
 Gap=     0.138 Goal=   None    Shift=    0.000
 RMSDP=4.63D-06 MaxDP=1.21D-03 DE=-2.72D-05 OVMax= 6.21D-03

 Cycle  10  Pass 1  IDiag  1:
 RMSU=  1.56D-06    CP:  9.89D-01  2.57D+00  8.61D-01  8.13D-01  1.23D+00
                    CP:  1.38D+00  1.95D+00  1.61D+00  1.60D+00
 E= -2464.40450910449     Delta-E=       -0.000010772768 Rises=F Damp=F
 DIIS: error= 4.55D-05 at cycle  10 NSaved=  10.
 NSaved=10 IEnMin=10 EnMin= -2464.40450910449     IErMin= 9 ErrMin= 4.02D-05
 ErrMax= 4.55D-05  0.00D+00 EMaxC= 1.00D-01 BMatC= 3.44D-06 BMatP= 5.09D-06
 IDIUse=1 WtCom= 1.00D+00 WtEn= 0.00D+00
 Coeff-Com: -0.136D-03 0.246D-03 0.355D-02 0.472D-02 0.445D-02-0.269D-01
 Coeff-Com: -0.823D-01-0.792D-01 0.486D+00 0.690D+00
 Coeff:     -0.136D-03 0.246D-03 0.355D-02 0.472D-02 0.445D-02-0.269D-01
 Coeff:     -0.823D-01-0.792D-01 0.486D+00 0.690D+00
 Gap=     0.086 Goal=   None    Shift=    0.000
 Gap=     0.138 Goal=   None    Shift=    0.000
 RMSDP=2.20D-06 MaxDP=4.20D-04 DE=-1.08D-05 OVMax= 3.81D-03

 Cycle  11  Pass 1  IDiag  1:
 RMSU=  7.68D-07    CP:  9.89D-01  2.57D+00  8.61D-01  8.13D-01  1.23D+00
                    CP:  1.39D+00  2.02D+00  1.69D+00  2.03D+00  1.71D+00
 E= -2464.40451380926     Delta-E=       -0.000004704767 Rises=F Damp=F
 DIIS: error= 4.64D-05 at cycle  11 NSaved=  11.
 NSaved=11 IEnMin=11 EnMin= -2464.40451380926     IErMin= 9 ErrMin= 4.02D-05
 ErrMax= 4.64D-05  0.00D+00 EMaxC= 1.00D-01 BMatC= 2.17D-06 BMatP= 3.44D-06
 IDIUse=1 WtCom= 1.00D+00 WtEn= 0.00D+00
 Coeff-Com:  0.375D-03-0.514D-03 0.108D-02-0.108D-03 0.519D-02 0.974D-02
 Coeff-Com:  0.961D-02-0.103D+00-0.868D-02-0.183D-01 0.111D+01
 Coeff:      0.375D-03-0.514D-03 0.108D-02-0.108D-03 0.519D-02 0.974D-02
 Coeff:      0.961D-02-0.103D+00-0.868D-02-0.183D-01 0.111D+01
 Gap=     0.086 Goal=   None    Shift=    0.000
 Gap=     0.138 Goal=   None    Shift=    0.000
 RMSDP=2.63D-06 MaxDP=4.57D-04 DE=-4.70D-06 OVMax= 5.09D-03

 Cycle  12  Pass 1  IDiag  1:
 RMSU=  4.97D-07    CP:  9.89D-01  2.57D+00  8.61D-01  8.13D-01  1.23D+00
                    CP:  1.39D+00  2.07D+00  1.74D+00  2.54D+00  2.77D+00
                    CP:  2.37D+00
 E= -2464.40451916798     Delta-E=       -0.000005358721 Rises=F Damp=F
 DIIS: error= 4.10D-05 at cycle  12 NSaved=  12.
 NSaved=12 IEnMin=12 EnMin= -2464.40451916798     IErMin= 9 ErrMin= 4.02D-05
 ErrMax= 4.10D-05  0.00D+00 EMaxC= 1.00D-01 BMatC= 1.96D-06 BMatP= 2.17D-06
 IDIUse=1 WtCom= 1.00D+00 WtEn= 0.00D+00
 Coeff-Com:  0.309D-03-0.417D-03 0.292D-03-0.178D-02 0.357D-03 0.507D-02
 Coeff-Com:  0.311D-01-0.260D-01-0.200D-01-0.396D+00 0.320D+00 0.109D+01
 Coeff:      0.309D-03-0.417D-03 0.292D-03-0.178D-02 0.357D-03 0.507D-02
 Coeff:      0.311D-01-0.260D-01-0.200D-01-0.396D+00 0.320D+00 0.109D+01
 Gap=     0.086 Goal=   None    Shift=    0.000
 Gap=     0.138 Goal=   None    Shift=    0.000
 RMSDP=2.96D-06 MaxDP=5.02D-04 DE=-5.36D-06 OVMax= 5.71D-03

 Cycle  13  Pass 1  IDiag  1:
 RMSU=  1.80D-06    CP:  9.89D-01  2.57D+00  8.61D-01  8.13D-01  1.23D+00
                    CP:  1.39D+00  2.12D+00  1.77D+00  3.00D+00  3.00D+00
                    CP:  3.00D+00  2.15D+00
 E= -2464.40452480594     Delta-E=       -0.000005637958 Rises=F Damp=F
 DIIS: error= 3.83D-05 at cycle  13 NSaved=  13.
 NSaved=13 IEnMin=13 EnMin= -2464.40452480594     IErMin=13 ErrMin= 3.83D-05
 ErrMax= 3.83D-05  0.00D+00 EMaxC= 1.00D-01 BMatC= 1.79D-06 BMatP= 1.96D-06
 IDIUse=1 WtCom= 1.00D+00 WtEn= 0.00D+00
 Coeff-Com:  0.966D-04-0.102D-03 0.667D-03-0.929D-03-0.204D-02-0.957D-02
 Coeff-Com:  0.109D-01 0.173D-01 0.132D+00-0.319D+00-0.415D+00 0.644D+00
 Coeff-Com:  0.941D+00
 Coeff:      0.966D-04-0.102D-03 0.667D-03-0.929D-03-0.204D-02-0.957D-02
 Coeff:      0.109D-01 0.173D-01 0.132D+00-0.319D+00-0.415D+00 0.644D+00
 Coeff:      0.941D+00
 Gap=     0.086 Goal=   None    Shift=    0.000
 Gap=     0.138 Goal=   None    Shift=    0.000
 RMSDP=3.22D-06 MaxDP=5.39D-04 DE=-5.64D-06 OVMax= 6.14D-03

 Cycle  14  Pass 1  IDiag  1:
 RMSU=  1.45D-06    CP:  9.89D-01  2.57D+00  8.61D-01  8.14D-01  1.22D+00
                    CP:  1.38D+00  2.16D+00  1.80D+00  3.00D+00  3.00D+00
                    CP:  3.00D+00  3.00D+00  2.49D+00
 E= -2464.40453063853     Delta-E=       -0.000005832593 Rises=F Damp=F
 DIIS: error= 3.49D-05 at cycle  14 NSaved=  14.
 NSaved=14 IEnMin=14 EnMin= -2464.40453063853     IErMin=14 ErrMin= 3.49D-05
 ErrMax= 3.49D-05  0.00D+00 EMaxC= 1.00D-01 BMatC= 1.60D-06 BMatP= 1.79D-06
 IDIUse=1 WtCom= 1.00D+00 WtEn= 0.00D+00
 Coeff-Com: -0.579D-04 0.115D-03 0.179D-02 0.181D-02 0.375D-03-0.221D-01
 Coeff-Com: -0.345D-01-0.125D-01 0.309D+00 0.183D+00-0.474D+00-0.901D+00
 Coeff-Com: -0.527D+00 0.248D+01
 Coeff:     -0.579D-04 0.115D-03 0.179D-02 0.181D-02 0.375D-03-0.221D-01
 Coeff:     -0.345D-01-0.125D-01 0.309D+00 0.183D+00-0.474D+00-0.901D+00
 Coeff:     -0.527D+00 0.248D+01
 Gap=     0.085 Goal=   None    Shift=    0.000
 Gap=     0.138 Goal=   None    Shift=    0.000
 RMSDP=8.31D-06 MaxDP=1.39D-03 DE=-5.83D-06 OVMax= 1.58D-02

 Cycle  15  Pass 1  IDiag  1:
 RMSU=  6.21D-06    CP:  9.89D-01  2.57D+00  8.61D-01  8.14D-01  1.21D+00
                    CP:  1.37D+00  2.28D+00  1.89D+00  3.00D+00  3.00D+00
                    CP:  3.00D+00  3.00D+00  3.00D+00  3.00D+00
 E= -2464.40454477984     Delta-E=       -0.000014141307 Rises=F Damp=F
 DIIS: error= 3.51D-05 at cycle  15 NSaved=  15.
 NSaved=15 IEnMin=15 EnMin= -2464.40454477984     IErMin=14 ErrMin= 3.49D-05
 ErrMax= 3.51D-05  0.00D+00 EMaxC= 1.00D-01 BMatC= 1.57D-06 BMatP= 1.60D-06
 IDIUse=1 WtCom= 1.00D+00 WtEn= 0.00D+00
 Coeff-Com:  0.487D-04-0.412D-04 0.181D-02 0.216D-02 0.443D-02-0.102D-01
 Coeff-Com: -0.302D-01-0.759D-01 0.212D+00 0.401D+00 0.386D+00-0.138D+01
 Coeff-Com: -0.268D+01 0.282D+01 0.134D+01
 Coeff:      0.487D-04-0.412D-04 0.181D-02 0.216D-02 0.443D-02-0.102D-01
 Coeff:     -0.302D-01-0.759D-01 0.212D+00 0.401D+00 0.386D+00-0.138D+01
 Coeff:     -0.268D+01 0.282D+01 0.134D+01
 Gap=     0.085 Goal=   None    Shift=    0.000
 Gap=     0.139 Goal=   None    Shift=    0.000
 RMSDP=1.29D-05 MaxDP=2.12D-03 DE=-1.41D-05 OVMax= 2.43D-02

 Cycle  16  Pass 1  IDiag  1:
 RMSU=  4.23D-06    CP:  9.89D-01  2.58D+00  8.61D-01  8.14D-01  1.20D+00
                    CP:  1.35D+00  2.45D+00  2.01D+00  3.00D+00  3.00D+00
                    CP:  3.00D+00  3.00D+00  3.00D+00  3.00D+00  2.90D+00
 E= -2464.40456501830     Delta-E=       -0.000020238464 Rises=F Damp=F
 DIIS: error= 3.33D-05 at cycle  16 NSaved=  16.
 NSaved=16 IEnMin=16 EnMin= -2464.40456501830     IErMin=16 ErrMin= 3.33D-05
 ErrMax= 3.33D-05  0.00D+00 EMaxC= 1.00D-01 BMatC= 1.42D-06 BMatP= 1.57D-06
 IDIUse=1 WtCom= 1.00D+00 WtEn= 0.00D+00
 Coeff-Com:  0.163D-03-0.207D-03 0.123D-02 0.909D-03 0.516D-02 0.327D-02
 Coeff-Com: -0.143D-02-0.832D-01 0.749D-01 0.217D+00 0.759D+00-0.739D+00
 Coeff-Com: -0.272D+01 0.158D+01 0.676D+00 0.123D+01
 Coeff:      0.163D-03-0.207D-03 0.123D-02 0.909D-03 0.516D-02 0.327D-02
 Coeff:     -0.143D-02-0.832D-01 0.749D-01 0.217D+00 0.759D+00-0.739D+00
 Coeff:     -0.272D+01 0.158D+01 0.676D+00 0.123D+01
 Gap=     0.085 Goal=   None    Shift=    0.000
 Gap=     0.139 Goal=   None    Shift=    0.000
 RMSDP=1.66D-05 MaxDP=2.68D-03 DE=-2.02D-05 OVMax= 3.10D-02

 Cycle  17  Pass 1  IDiag  1:
 RMSU=  1.45D-05    CP:  9.89D-01  2.58D+00  8.60D-01  8.13D-01  1.17D+00
                    CP:  1.31D+00  2.66D+00  2.17D+00  3.00D+00  3.00D+00
                    CP:  3.00D+00  3.00D+00  3.00D+00  3.00D+00  3.00D+00
                    CP:  2.30D+00
 E= -2464.40458919457     Delta-E=       -0.000024176270 Rises=F Damp=F
 DIIS: error= 3.41D-05 at cycle  17 NSaved=  17.
 NSaved=17 IEnMin=17 EnMin= -2464.40458919457     IErMin=16 ErrMin= 3.33D-05
 ErrMax= 3.41D-05  0.00D+00 EMaxC= 1.00D-01 BMatC= 1.44D-06 BMatP= 1.42D-06
 IDIUse=1 WtCom= 1.00D+00 WtEn= 0.00D+00
 Coeff-Com:  0.208D-03-0.275D-03 0.942D-03 0.111D-03 0.370D-02 0.499D-02
 Coeff-Com:  0.113D-01-0.493D-01 0.728D-01 0.337D-01 0.473D+00-0.281D+00
 Coeff-Com: -0.169D+01 0.974D+00-0.291D+00 0.732D+00 0.101D+01
 Coeff:      0.208D-03-0.275D-03 0.942D-03 0.111D-03 0.370D-02 0.499D-02
 Coeff:      0.113D-01-0.493D-01 0.728D-01 0.337D-01 0.473D+00-0.281D+00
 Coeff:     -0.169D+01 0.974D+00-0.291D+00 0.732D+00 0.101D+01
 Gap=     0.085 Goal=   None    Shift=    0.000
 Gap=     0.139 Goal=   None    Shift=    0.000
 RMSDP=1.71D-05 MaxDP=2.70D-03 DE=-2.42D-05 OVMax= 3.19D-02

 Cycle  18  Pass 1  IDiag  1:
 RMSU=  2.93D-06    CP:  9.90D-01  2.59D+00  8.59D-01  8.11D-01  1.14D+00
                    CP:  1.26D+00  2.86D+00  2.31D+00  3.00D+00  3.00D+00
                    CP:  3.00D+00  3.00D+00  3.00D+00  3.00D+00  3.00D+00
                    CP:  3.00D+00  2.07D+00
 E= -2464.40461346404     Delta-E=       -0.000024269470 Rises=F Damp=F
 DIIS: error= 3.62D-05 at cycle  18 NSaved=  18.
 NSaved=18 IEnMin=18 EnMin= -2464.40461346404     IErMin=16 ErrMin= 3.33D-05
 ErrMax= 3.62D-05  0.00D+00 EMaxC= 1.00D-01 BMatC= 1.62D-06 BMatP= 1.42D-06
 IDIUse=1 WtCom= 1.00D+00 WtEn= 0.00D+00
 Coeff-Com:  0.219D-03-0.291D-03 0.872D-03 0.407D-06 0.393D-02 0.669D-02
 Coeff-Com:  0.144D-01-0.549D-01 0.474D-01 0.149D-01 0.564D+00-0.185D+00
 Coeff-Com: -0.176D+01 0.770D+00-0.333D+00 0.992D+00 0.117D+01-0.245D+00
 Coeff:      0.219D-03-0.291D-03 0.872D-03 0.407D-06 0.393D-02 0.669D-02
 Coeff:      0.144D-01-0.549D-01 0.474D-01 0.149D-01 0.564D+00-0.185D+00
 Coeff:     -0.176D+01 0.770D+00-0.333D+00 0.992D+00 0.117D+01-0.245D+00
 Gap=     0.085 Goal=   None    Shift=    0.000
 Gap=     0.139 Goal=   None    Shift=    0.000
 RMSDP=2.90D-06 MaxDP=4.66D-04 DE=-2.43D-05 OVMax= 5.39D-03

 Cycle  19  Pass 1  IDiag  1:
 RMSU=  1.05D-07    CP:  9.90D-01  2.59D+00  8.60D-01  8.12D-01  1.15D+00
                    CP:  1.27D+00  2.83D+00  2.29D+00  3.00D+00  3.00D+00
                    CP:  3.00D+00  3.00D+00  3.00D+00  3.00D+00  3.00D+00
                    CP:  3.00D+00  1.89D+00  6.58D-01
 E= -2464.40460930049     Delta-E=        0.000004163547 Rises=F Damp=F
 DIIS: error= 3.65D-05 at cycle  19 NSaved=  19.
 NSaved=19 IEnMin=18 EnMin= -2464.40461346404     IErMin=16 ErrMin= 3.33D-05
 ErrMax= 3.65D-05  0.00D+00 EMaxC= 1.00D-01 BMatC= 1.65D-06 BMatP= 1.42D-06
 IDIUse=1 WtCom= 1.00D+00 WtEn= 0.00D+00
 Coeff-Com:  0.225D-03-0.300D-03 0.803D-03-0.140D-03 0.381D-02 0.748D-02
 Coeff-Com:  0.179D-01-0.506D-01 0.400D-01-0.196D-01 0.547D+00-0.873D-01
 Coeff-Com: -0.164D+01 0.624D+00-0.484D+00 0.104D+01 0.143D+01-0.169D+01
 Coeff-Com:  0.125D+01
 Coeff:      0.225D-03-0.300D-03 0.803D-03-0.140D-03 0.381D-02 0.748D-02
 Coeff:      0.179D-01-0.506D-01 0.400D-01-0.196D-01 0.547D+00-0.873D-01
 Coeff:     -0.164D+01 0.624D+00-0.484D+00 0.104D+01 0.143D+01-0.169D+01
 Coeff:      0.125D+01
 Gap=     0.086 Goal=   None    Shift=    0.000
 Gap=     0.139 Goal=   None    Shift=    0.000
 RMSDP=4.69D-06 MaxDP=7.40D-04 DE= 4.16D-06 OVMax= 8.73D-03

 Cycle  20  Pass 1  IDiag  1:
 RMSU=  5.22D-08    CP:  9.89D-01  2.58D+00  8.60D-01  8.12D-01  1.16D+00
                    CP:  1.29D+00  2.78D+00  2.27D+00  3.00D+00  3.00D+00
                    CP:  3.00D+00  3.00D+00  3.00D+00  3.00D+00  3.00D+00
                    CP:  3.00D+00  1.60D+00  1.06D-01  2.86D+00
 E= -2464.40460257590     Delta-E=        0.000006724595 Rises=F Damp=F
 DIIS: error= 3.71D-05 at cycle  20 NSaved=  20.
 NSaved=20 IEnMin=18 EnMin= -2464.40461346404     IErMin=16 ErrMin= 3.33D-05
 ErrMax= 3.71D-05  0.00D+00 EMaxC= 1.00D-01 BMatC= 1.71D-06 BMatP= 1.42D-06
 IDIUse=1 WtCom= 1.00D+00 WtEn= 0.00D+00
 Large coefficients: NSaved= 20 BigCof=   13.61 CofMax=   10.00 Det=-3.69D-10
 Inversion failed.  Reducing to 19 matrices.
 Large coefficients: NSaved= 19 BigCof=   13.33 CofMax=   10.00 Det=-3.69D-10
 Inversion failed.  Reducing to 18 matrices.
 Large coefficients: NSaved= 18 BigCof=   13.36 CofMax=   10.00 Det=-3.69D-10
 Inversion failed.  Reducing to 17 matrices.
 Large coefficients: NSaved= 17 BigCof=   13.64 CofMax=   10.00 Det=-3.81D-10
 Inversion failed.  Reducing to 16 matrices.
 Large coefficients: NSaved= 16 BigCof=   18.06 CofMax=   10.00 Det=-3.89D-10
 Inversion failed.  Reducing to 15 matrices.
 Large coefficients: NSaved= 15 BigCof=   18.32 CofMax=   10.00 Det=-3.91D-10
 Inversion failed.  Reducing to 14 matrices.
 Large coefficients: NSaved= 14 BigCof=   18.84 CofMax=   10.00 Det=-3.95D-10
 Inversion failed.  Reducing to 13 matrices.
 Large coefficients: NSaved= 13 BigCof=   19.34 CofMax=   10.00 Det=-4.45D-10
 Inversion failed.  Reducing to 12 matrices.
 Large coefficients: NSaved= 12 BigCof=   17.17 CofMax=   10.00 Det=-5.10D-10
 Inversion failed.  Reducing to 11 matrices.
 Large coefficients: NSaved= 11 BigCof=   18.38 CofMax=   10.00 Det=-5.51D-10
 Inversion failed.  Reducing to 10 matrices.
 Large coefficients: NSaved= 10 BigCof=   17.74 CofMax=   10.00 Det=-5.54D-10
 Inversion failed.  Reducing to  9 matrices.
 Large coefficients: NSaved=  9 BigCof=   17.94 CofMax=   10.00 Det=-5.55D-10
 Inversion failed.  Reducing to  8 matrices.
 Large coefficients: NSaved=  8 BigCof=   17.72 CofMax=   10.00 Det=-5.63D-10
 Inversion failed.  Reducing to  7 matrices.
 Large coefficients: NSaved=  7 BigCof=   18.99 CofMax=   10.00 Det=-5.70D-10
 Inversion failed.  Reducing to  6 matrices.
 Large coefficients: NSaved=  6 BigCof=   18.68 CofMax=   10.00 Det=-5.70D-10
 Inversion failed.  Reducing to  5 matrices.
 Large coefficients: NSaved=  5 BigCof=   19.22 CofMax=   10.00 Det=-6.49D-10
 Inversion failed.  Reducing to  4 matrices.
 Large coefficients: NSaved=  4 BigCof=   19.73 CofMax=   10.00 Det=-6.52D-10
 Inversion failed.  Reducing to  3 matrices.
 Large coefficients: NSaved=  3 BigCof=   19.80 CofMax=   10.00 Det=-1.22D-09
 Inversion failed.  Reducing to  2 matrices.
 Large coefficients: NSaved=  2 BigCof=   17.57 CofMax=   10.00 Det=-1.70D-09
 Coeff-Com:  0.176D+02-0.166D+02
 Coeff:      0.176D+02-0.166D+02
 Gap=     0.084 Goal=   None    Shift=    0.000
 Gap=     0.139 Goal=   None    Shift=    0.000
 RMSDP=8.37D-05 MaxDP=1.42D-02 DE= 6.72D-06 OVMax= 1.53D-01

 Cycle  21  Pass 1  IDiag  1:
 Restarting incremental Fock formation.
 E= -2464.40472029128     Delta-E=       -0.000117715377 Rises=F Damp=F
 DIIS: error= 2.89D-05 at cycle  21 NSaved=   3.
 NSaved= 3 IEnMin= 3 EnMin= -2464.40472029128     IErMin= 3 ErrMin= 2.89D-05
 ErrMax= 2.89D-05  0.00D+00 EMaxC= 1.00D-01 BMatC= 3.66D-06 BMatP= 1.65D-06
 IDIUse=1 WtCom= 1.00D+00 WtEn= 0.00D+00
 Large coefficients: NSaved=  3 BigCof=   17.15 CofMax=   10.00 Det=-1.70D-09
 Inversion failed.  Reducing to  2 matrices.
 Coeff-Com:  0.681D+00 0.319D+00
 Coeff:      0.681D+00 0.319D+00
 Gap=     0.083 Goal=   None    Shift=    0.000
 Gap=     0.139 Goal=   None    Shift=    0.000
 RMSDP=5.58D-05 MaxDP=9.63D-03 DE=-1.18D-04 OVMax= 1.01D-01

 Cycle  22  Pass 1  IDiag  1:
 RMSU=  5.55D-05    CP:  9.99D-01
 E= -2464.40464339071     Delta-E=        0.000076900569 Rises=F Damp=F
 DIIS: error= 1.95D-05 at cycle  22 NSaved=   3.
 NSaved= 3 IEnMin= 2 EnMin= -2464.40472029128     IErMin= 3 ErrMin= 1.95D-05
 ErrMax= 1.95D-05  0.00D+00 EMaxC= 1.00D-01 BMatC= 1.50D-06 BMatP= 1.71D-06
 IDIUse=1 WtCom= 1.00D+00 WtEn= 0.00D+00
 Coeff-Com:  0.127D+00 0.313D+00 0.560D+00
 Coeff:      0.127D+00 0.313D+00 0.560D+00
 Gap=     0.085 Goal=   None    Shift=    0.000
 Gap=     0.139 Goal=   None    Shift=    0.000
 RMSDP=1.53D-05 MaxDP=2.50D-03 DE= 7.69D-05 OVMax= 2.85D-02

 Cycle  23  Pass 1  IDiag  1:
 RMSU=  1.18D-06    CP:  9.99D-01  7.26D-01
 E= -2464.40466629366     Delta-E=       -0.000022902956 Rises=F Damp=F
 DIIS: error= 3.52D-05 at cycle  23 NSaved=   4.
 NSaved= 4 IEnMin= 2 EnMin= -2464.40472029128     IErMin= 3 ErrMin= 1.95D-05
 ErrMax= 3.52D-05  0.00D+00 EMaxC= 1.00D-01 BMatC= 1.63D-06 BMatP= 1.50D-06
 IDIUse=1 WtCom= 1.00D+00 WtEn= 0.00D+00
 Coeff-Com: -0.397D+00 0.345D+00 0.441D+00 0.611D+00
 Coeff:     -0.397D+00 0.345D+00 0.441D+00 0.611D+00
 Gap=     0.085 Goal=   None    Shift=    0.000
 Gap=     0.139 Goal=   None    Shift=    0.000
 RMSDP=2.60D-05 MaxDP=4.46D-03 DE=-2.29D-05 OVMax= 4.77D-02

 Cycle  24  Pass 1  IDiag  1:
 RMSU=  1.17D-06    CP:  1.00D+00  2.61D-01  1.90D+00
 E= -2464.40470493849     Delta-E=       -0.000038644823 Rises=F Damp=F
 DIIS: error= 3.45D-05 at cycle  24 NSaved=   5.
 NSaved= 5 IEnMin= 2 EnMin= -2464.40472029128     IErMin= 3 ErrMin= 1.95D-05
 ErrMax= 3.45D-05  0.00D+00 EMaxC= 1.00D-01 BMatC= 1.55D-06 BMatP= 1.50D-06
 IDIUse=1 WtCom= 1.00D+00 WtEn= 0.00D+00
 Coeff-Com: -0.312D+00 0.356D+00 0.434D+00 0.668D+00-0.146D+00
 Coeff:     -0.312D+00 0.356D+00 0.434D+00 0.668D+00-0.146D+00
 Gap=     0.086 Goal=   None    Shift=    0.000
 Gap=     0.139 Goal=   None    Shift=    0.000
 RMSDP=6.95D-06 MaxDP=1.21D-03 DE=-3.86D-05 OVMax= 1.27D-02

 Cycle  25  Pass 1  IDiag  1:
 RMSU=  6.27D-08    CP:  9.99D-01  3.85D-01  1.69D+00  5.58D-01
 E= -2464.40469475928     Delta-E=        0.000010179201 Rises=F Damp=F
 DIIS: error= 3.53D-05 at cycle  25 NSaved=   6.
 NSaved= 6 IEnMin= 2 EnMin= -2464.40472029128     IErMin= 3 ErrMin= 1.95D-05
 ErrMax= 3.53D-05  0.00D+00 EMaxC= 1.00D-01 BMatC= 1.63D-06 BMatP= 1.50D-06
 IDIUse=1 WtCom= 1.00D+00 WtEn= 0.00D+00
 Coeff-Com:  0.107D+00 0.474D-01 0.763D+00 0.101D+01 0.662D+01-0.754D+01
 Coeff:      0.107D+00 0.474D-01 0.763D+00 0.101D+01 0.662D+01-0.754D+01
 Gap=     0.085 Goal=   None    Shift=    0.000
 Gap=     0.139 Goal=   None    Shift=    0.000
 RMSDP=4.22D-06 MaxDP=9.56D-04 DE= 1.02D-05 OVMax= 6.77D-03

 Cycle  26  Pass 1  IDiag  1:
 RMSU=  2.74D-07    CP:  9.99D-01  4.56D-01  2.58D+00  1.46D+00 -2.54D+00
 E= -2464.40468927599     Delta-E=        0.000005483294 Rises=F Damp=F
 DIIS: error= 3.36D-05 at cycle  26 NSaved=   7.
 NSaved= 7 IEnMin= 2 EnMin= -2464.40472029128     IErMin= 3 ErrMin= 1.95D-05
 ErrMax= 3.36D-05  0.00D+00 EMaxC= 1.00D-01 BMatC= 1.98D-06 BMatP= 1.50D-06
 IDIUse=1 WtCom= 1.00D+00 WtEn= 0.00D+00
 Large coefficients: NSaved=  7 BigCof=   33.35 CofMax=   10.00 Det=-1.22D-10
 Inversion failed.  Reducing to  6 matrices.
 Large coefficients: NSaved=  6 BigCof=   19.06 CofMax=   10.00 Det=-2.53D-10
 Inversion failed.  Reducing to  5 matrices.
 Coeff-Com:  0.518D+00 0.603D+00-0.179D+01 0.108D+01 0.592D+00
 Coeff:      0.518D+00 0.603D+00-0.179D+01 0.108D+01 0.592D+00
 Gap=     0.085 Goal=   None    Shift=    0.000
 Gap=     0.139 Goal=   None    Shift=    0.000
 RMSDP=9.83D-06 MaxDP=1.66D-03 DE= 5.48D-06 OVMax= 1.83D-02

 Cycle  27  Pass 1  IDiag  1:
 RMSU=  1.03D-07    CP:  9.99D-01  6.26D-01  1.14D+00  2.12D-02  2.26D+00
                    CP:  2.01D-01
 E= -2464.40467458264     Delta-E=        0.000014693353 Rises=F Damp=F
 DIIS: error= 2.86D-05 at cycle  27 NSaved=   6.
 NSaved= 6 IEnMin= 1 EnMin= -2464.40472029128     IErMin= 6 ErrMin= 2.86D-05
 ErrMax= 2.86D-05  0.00D+00 EMaxC= 1.00D-01 BMatC= 1.46D-06 BMatP= 1.55D-06
 IDIUse=1 WtCom= 1.00D+00 WtEn= 0.00D+00
 Large coefficients: NSaved=  6 BigCof=   34.06 CofMax=   10.00 Det=-2.10D-10
 Inversion failed.  Reducing to  5 matrices.
 Large coefficients: NSaved=  5 BigCof=   28.65 CofMax=   10.00 Det=-2.36D-10
 Inversion failed.  Reducing to  4 matrices.
 Coeff-Com:  0.503D+00-0.102D+01 0.526D+00 0.992D+00
 Coeff:      0.503D+00-0.102D+01 0.526D+00 0.992D+00
 Gap=     0.085 Goal=   None    Shift=    0.000
 Gap=     0.139 Goal=   None    Shift=    0.000
 RMSDP=3.28D-06 MaxDP=5.50D-04 DE= 1.47D-05 OVMax= 6.20D-03

 Cycle  28  Pass 1  IDiag  1:
 RMSU=  8.62D-08    CP:  9.99D-01  5.68D-01  1.37D+00  1.50D-01  4.23D-01
                    CP:  1.21D-01  7.11D-02
 E= -2464.40467952967     Delta-E=       -0.000004947029 Rises=F Damp=F
 DIIS: error= 3.85D-05 at cycle  28 NSaved=   5.
 NSaved= 5 IEnMin= 1 EnMin= -2464.40472029128     IErMin= 4 ErrMin= 2.86D-05
 ErrMax= 3.85D-05  0.00D+00 EMaxC= 1.00D-01 BMatC= 1.87D-06 BMatP= 1.46D-06
 IDIUse=1 WtCom= 1.00D+00 WtEn= 0.00D+00
 Coeff-Com:  0.499D+00-0.866D+00 0.622D+00 0.941D+00-0.196D+00
 Coeff:      0.499D+00-0.866D+00 0.622D+00 0.941D+00-0.196D+00
 Gap=     0.085 Goal=   None    Shift=    0.000
 Gap=     0.139 Goal=   None    Shift=    0.000
 RMSDP=3.31D-06 MaxDP=5.63D-04 DE=-4.95D-06 OVMax= 6.13D-03

 Cycle  29  Pass 1  IDiag  1:
 RMSU=  2.23D-08    CP:  9.99D-01  5.09D-01  1.61D+00  3.79D-01 -2.01D-01
                    CP:  2.12D-01  1.22D-01  1.09D+00
 E= -2464.40468451861     Delta-E=       -0.000004988944 Rises=F Damp=F
 DIIS: error= 3.91D-05 at cycle  29 NSaved=   6.
 NSaved= 6 IEnMin= 1 EnMin= -2464.40472029128     IErMin= 4 ErrMin= 2.86D-05
 ErrMax= 3.91D-05  0.00D+00 EMaxC= 1.00D-01 BMatC= 1.93D-06 BMatP= 1.46D-06
 IDIUse=1 WtCom= 1.00D+00 WtEn= 0.00D+00
 Coeff-Com:  0.478D+00 0.207D+00 0.131D+01 0.664D+00-0.694D+01 0.529D+01
 Coeff:      0.478D+00 0.207D+00 0.131D+01 0.664D+00-0.694D+01 0.529D+01
 Gap=     0.086 Goal=   None    Shift=    0.000
 Gap=     0.139 Goal=   None    Shift=    0.000
 RMSDP=4.05D-05 MaxDP=7.19D-03 DE=-4.99D-06 OVMax= 7.40D-02

 Cycle  30  Pass 1  IDiag  1:
 RMSU=  1.95D-06    CP:  1.00D+00 -2.12D-01  3.00D+00  3.00D+00 -3.00D+00
                    CP:  9.54D-01  1.18D+00  8.90D-01 -3.00D+00
 E= -2464.40474174379     Delta-E=       -0.000057225183 Rises=F Damp=F
 DIIS: error= 3.09D-05 at cycle  30 NSaved=   7.
 NSaved= 7 IEnMin= 7 EnMin= -2464.40474174379     IErMin= 4 ErrMin= 2.86D-05
 ErrMax= 3.09D-05  0.00D+00 EMaxC= 1.00D-01 BMatC= 1.23D-06 BMatP= 1.46D-06
 IDIUse=1 WtCom= 1.00D+00 WtEn= 0.00D+00
 Coeff-Com:  0.177D+00-0.228D+01 0.169D+01 0.941D+00-0.689D+01 0.464D+01
 Coeff-Com:  0.273D+01
 Coeff:      0.177D+00-0.228D+01 0.169D+01 0.941D+00-0.689D+01 0.464D+01
 Coeff:      0.273D+01
 Gap=     0.089 Goal=   None    Shift=    0.000
 Gap=     0.138 Goal=   None    Shift=    0.000
 RMSDP=6.54D-05 MaxDP=1.27D-02 DE=-5.72D-05 OVMax= 1.14D-01

 Cycle  31  Pass 1  IDiag  1:
 RMSU=  1.29D-05    CP:  1.00D+00 -1.34D+00  2.14D+00  3.00D+00 -3.00D+00
                    CP:  3.00D+00  3.00D+00 -3.00D+00 -3.00D+00  3.00D+00
 E= -2464.40476451068     Delta-E=       -0.000022766890 Rises=F Damp=F
 DIIS: error= 7.10D-05 at cycle  31 NSaved=   8.
 NSaved= 8 IEnMin= 8 EnMin= -2464.40476451068     IErMin= 4 ErrMin= 2.86D-05
 ErrMax= 7.10D-05  0.00D+00 EMaxC= 1.00D-01 BMatC= 1.39D-05 BMatP= 1.23D-06
 IDIUse=1 WtCom= 1.00D+00 WtEn= 0.00D+00
 Coeff-Com:  0.198D-01-0.163D+01 0.121D+01 0.355D+00-0.269D+01 0.275D+01
 Coeff-Com:  0.705D+00 0.283D+00
 Coeff:      0.198D-01-0.163D+01 0.121D+01 0.355D+00-0.269D+01 0.275D+01
 Coeff:      0.705D+00 0.283D+00
 Gap=     0.084 Goal=   None    Shift=    0.000
 Gap=     0.139 Goal=   None    Shift=    0.000
 RMSDP=5.83D-05 MaxDP=1.14D-02 DE=-2.28D-05 OVMax= 1.01D-01

 Cycle  32  Pass 1  IDiag  1:
 RMSU=  2.37D-06    CP:  1.00D+00 -3.27D-01  3.00D+00  3.00D+00 -3.00D+00
                    CP:  3.00D+00  2.99D+00  3.00D+00 -3.00D+00  3.00D+00
                    CP: -5.56D-03
 E= -2464.40475033258     Delta-E=        0.000014178100 Rises=F Damp=F
 DIIS: error= 3.55D-05 at cycle  32 NSaved=   9.
 NSaved= 9 IEnMin= 8 EnMin= -2464.40476451068     IErMin= 4 ErrMin= 2.86D-05
 ErrMax= 3.55D-05  0.00D+00 EMaxC= 1.00D-01 BMatC= 2.90D-06 BMatP= 1.23D-06
 IDIUse=1 WtCom= 1.00D+00 WtEn= 0.00D+00
 Coeff-Com: -0.941D-01-0.163D+01-0.118D-01 0.373D+00 0.169D+01-0.152D+01
 Coeff-Com:  0.106D+01 0.323D+00 0.818D+00
 Coeff:     -0.941D-01-0.163D+01-0.118D-01 0.373D+00 0.169D+01-0.152D+01
 Coeff:      0.106D+01 0.323D+00 0.818D+00
 Gap=     0.087 Goal=   None    Shift=    0.000
 Gap=     0.138 Goal=   None    Shift=    0.000
 RMSDP=3.54D-05 MaxDP=6.77D-03 DE= 1.42D-05 OVMax= 6.33D-02

 Cycle  33  Pass 1  IDiag  1:
 RMSU=  5.33D-07    CP:  1.00D+00 -9.42D-01  3.00D+00  3.00D+00 -3.00D+00
                    CP:  3.00D+00  3.00D+00  2.85D+00 -3.00D+00  3.00D+00
                    CP:  6.89D-01  1.18D+00
 E= -2464.40477707574     Delta-E=       -0.000026743153 Rises=F Damp=F
 DIIS: error= 8.23D-06 at cycle  33 NSaved=  10.
 NSaved=10 IEnMin=10 EnMin= -2464.40477707574     IErMin=10 ErrMin= 8.23D-06
 ErrMax= 8.23D-06  0.00D+00 EMaxC= 1.00D-01 BMatC= 1.09D-07 BMatP= 1.23D-06
 IDIUse=1 WtCom= 1.00D+00 WtEn= 0.00D+00
 Coeff-Com: -0.206D-01-0.604D+00 0.246D-01 0.197D+00 0.494D+00-0.417D+00
 Coeff-Com:  0.237D+00 0.129D+00 0.183D+00 0.776D+00
 Coeff:     -0.206D-01-0.604D+00 0.246D-01 0.197D+00 0.494D+00-0.417D+00
 Coeff:      0.237D+00 0.129D+00 0.183D+00 0.776D+00
 Gap=     0.087 Goal=   None    Shift=    0.000
 Gap=     0.138 Goal=   None    Shift=    0.000
 RMSDP=1.78D-06 MaxDP=3.51D-04 DE=-2.67D-05 OVMax= 3.20D-03

 Cycle  34  Pass 1  IDiag  1:
 RMSU=  1.08D-07    CP:  1.00D+00 -9.70D-01  3.00D+00  3.00D+00 -3.00D+00
                    CP:  3.00D+00  3.00D+00  2.82D+00 -3.00D+00  3.00D+00
                    CP:  7.48D-01  1.28D+00  1.19D+00
 E= -2464.40477740645     Delta-E=       -0.000000330716 Rises=F Damp=F
 DIIS: error= 6.99D-06 at cycle  34 NSaved=  11.
 NSaved=11 IEnMin=11 EnMin= -2464.40477740645     IErMin=11 ErrMin= 6.99D-06
 ErrMax= 6.99D-06  0.00D+00 EMaxC= 1.00D-01 BMatC= 9.12D-08 BMatP= 1.09D-07
 IDIUse=1 WtCom= 1.00D+00 WtEn= 0.00D+00
 Coeff-Com:  0.247D-01-0.114D-01 0.722D-01 0.526D-01-0.104D+00 0.166D+00
 Coeff-Com: -0.182D+00 0.179D-01-0.212D+00 0.245D+00 0.932D+00
 Coeff:      0.247D-01-0.114D-01 0.722D-01 0.526D-01-0.104D+00 0.166D+00
 Coeff:     -0.182D+00 0.179D-01-0.212D+00 0.245D+00 0.932D+00
 Gap=     0.087 Goal=   None    Shift=    0.000
 Gap=     0.138 Goal=   None    Shift=    0.000
 RMSDP=4.22D-07 MaxDP=1.41D-04 DE=-3.31D-07 OVMax= 3.86D-04

 Cycle  35  Pass 1  IDiag  1:
 RMSU=  4.81D-08    CP:  1.00D+00 -9.65D-01  3.00D+00  3.00D+00 -3.00D+00
                    CP:  3.00D+00  3.00D+00  3.00D+00 -3.00D+00  3.00D+00
                    CP:  7.60D-01  1.37D+00  1.33D+00  1.73D+00
 E= -2464.40477732551     Delta-E=        0.000000080940 Rises=F Damp=F
 DIIS: error= 8.30D-06 at cycle  35 NSaved=  12.
 NSaved=12 IEnMin=11 EnMin= -2464.40477740645     IErMin=11 ErrMin= 6.99D-06
 ErrMax= 8.30D-06  0.00D+00 EMaxC= 1.00D-01 BMatC= 1.72D-07 BMatP= 9.12D-08
 IDIUse=1 WtCom= 1.00D+00 WtEn= 0.00D+00
 Coeff-Com:  0.160D-01-0.195D+00-0.317D-01 0.659D-01 0.482D+00-0.464D+00
 Coeff-Com:  0.138D+00 0.556D-01-0.879D-01-0.115D+00 0.133D+00 0.100D+01
 Coeff:      0.160D-01-0.195D+00-0.317D-01 0.659D-01 0.482D+00-0.464D+00
 Coeff:      0.138D+00 0.556D-01-0.879D-01-0.115D+00 0.133D+00 0.100D+01
 Gap=     0.088 Goal=   None    Shift=    0.000
 Gap=     0.138 Goal=   None    Shift=    0.000
 RMSDP=4.86D-06 MaxDP=9.75D-04 DE= 8.09D-08 OVMax= 8.42D-03

 Cycle  36  Pass 1  IDiag  1:
 RMSU=  7.09D-08    CP:  1.00D+00 -1.05D+00  3.00D+00  3.00D+00 -3.00D+00
                    CP:  3.00D+00  3.00D+00  2.05D+00 -3.00D+00  3.00D+00
                    CP:  8.58D-01  1.25D+00  1.44D+00  1.95D+00  6.99D-01
 E= -2464.40477774981     Delta-E=       -0.000000424301 Rises=F Damp=F
 DIIS: error= 3.66D-07 at cycle  36 NSaved=  13.
 NSaved=13 IEnMin=13 EnMin= -2464.40477774981     IErMin=13 ErrMin= 3.66D-07
 ErrMax= 3.66D-07  0.00D+00 EMaxC= 1.00D-01 BMatC= 1.23D-09 BMatP= 9.12D-08
 IDIUse=1 WtCom= 1.00D+00 WtEn= 0.00D+00
 Coeff-Com:  0.303D-02-0.861D-01-0.328D-01 0.201D-01 0.221D+00-0.236D+00
 Coeff-Com:  0.122D+00 0.215D-01 0.269D-01-0.158D+00-0.221D+00 0.520D+00
 Coeff-Com:  0.800D+00
 Coeff:      0.303D-02-0.861D-01-0.328D-01 0.201D-01 0.221D+00-0.236D+00
 Coeff:      0.122D+00 0.215D-01 0.269D-01-0.158D+00-0.221D+00 0.520D+00
 Coeff:      0.800D+00
 Gap=     0.088 Goal=   None    Shift=    0.000
 Gap=     0.138 Goal=   None    Shift=    0.000
 RMSDP=6.36D-07 MaxDP=1.28D-04 DE=-4.24D-07 OVMax= 1.06D-03

 Cycle  37  Pass 1  IDiag  1:
 RMSU=  1.47D-08    CP:  1.00D+00 -1.06D+00  3.00D+00  3.00D+00 -3.00D+00
                    CP:  3.00D+00  3.00D+00  1.75D+00 -3.00D+00  3.00D+00
                    CP:  8.67D-01  1.22D+00  1.47D+00  2.09D+00  9.05D-01
                    CP:  1.33D+00
 E= -2464.40477772513     Delta-E=        0.000000024684 Rises=F Damp=F
 DIIS: error= 2.18D-06 at cycle  37 NSaved=  14.
 NSaved=14 IEnMin=13 EnMin= -2464.40477774981     IErMin=13 ErrMin= 3.66D-07
 ErrMax= 2.18D-06  0.00D+00 EMaxC= 1.00D-01 BMatC= 1.26D-08 BMatP= 1.23D-09
 IDIUse=1 WtCom= 1.00D+00 WtEn= 0.00D+00
 Coeff-Com: -0.405D-02 0.677D-01 0.743D-02-0.218D-01-0.192D+00 0.177D+00
 Coeff-Com: -0.306D-01-0.217D-01 0.496D-01-0.167D-01-0.109D+00-0.889D-01
 Coeff-Com:  0.270D+00 0.913D+00
 Coeff:     -0.405D-02 0.677D-01 0.743D-02-0.218D-01-0.192D+00 0.177D+00
 Coeff:     -0.306D-01-0.217D-01 0.496D-01-0.167D-01-0.109D+00-0.889D-01
 Coeff:      0.270D+00 0.913D+00
 Gap=     0.088 Goal=   None    Shift=    0.000
 Gap=     0.138 Goal=   None    Shift=    0.000
 RMSDP=1.37D-06 MaxDP=2.63D-04 DE= 2.47D-08 OVMax= 2.37D-03

 Cycle  38  Pass 1  IDiag  1:
 RMSU=  1.64D-08    CP:  1.00D+00 -1.04D+00  3.00D+00  3.00D+00 -3.00D+00
                    CP:  3.00D+00  3.00D+00  2.04D+00 -3.00D+00  3.00D+00
                    CP:  8.37D-01  1.24D+00  1.44D+00  2.17D+00  1.09D+00
                    CP:  1.19D+00  1.57D+00
 E= -2464.40477775498     Delta-E=       -0.000000029846 Rises=F Damp=F
 DIIS: error= 1.11D-07 at cycle  38 NSaved=  15.
 NSaved=15 IEnMin=15 EnMin= -2464.40477775498     IErMin=15 ErrMin= 1.11D-07
 ErrMax= 1.11D-07  0.00D+00 EMaxC= 1.00D-01 BMatC= 7.88D-11 BMatP= 1.23D-09
 IDIUse=1 WtCom= 1.00D+00 WtEn= 0.00D+00
 Coeff-Com: -0.354D-02 0.436D-01 0.148D-01-0.131D-01-0.168D+00 0.158D+00
 Coeff-Com: -0.338D-01-0.161D-01 0.167D-01 0.416D-01-0.280D-01-0.155D+00
 Coeff-Com: -0.213D-02 0.418D+00 0.727D+00
 Coeff:     -0.354D-02 0.436D-01 0.148D-01-0.131D-01-0.168D+00 0.158D+00
 Coeff:     -0.338D-01-0.161D-01 0.167D-01 0.416D-01-0.280D-01-0.155D+00
 Coeff:     -0.213D-02 0.418D+00 0.727D+00
 Gap=     0.088 Goal=   None    Shift=    0.000
 Gap=     0.138 Goal=   None    Shift=    0.000
 RMSDP=1.61D-07 MaxDP=3.33D-05 DE=-2.98D-08 OVMax= 2.85D-04

 Cycle  39  Pass 1  IDiag  1:
 RMSU=  5.22D-09    CP:  1.00D+00 -1.04D+00  3.00D+00  3.00D+00 -3.00D+00
                    CP:  3.00D+00  3.00D+00  2.01D+00 -3.00D+00  3.00D+00
                    CP:  8.42D-01  1.24D+00  1.45D+00  2.17D+00  1.12D+00
                    CP:  1.21D+00  1.74D+00  1.12D+00
 E= -2464.40477775573     Delta-E=       -0.000000000749 Rises=F Damp=F
 DIIS: error= 1.03D-07 at cycle  39 NSaved=  16.
 NSaved=16 IEnMin=16 EnMin= -2464.40477775573     IErMin=16 ErrMin= 1.03D-07
 ErrMax= 1.03D-07  0.00D+00 EMaxC= 1.00D-01 BMatC= 5.83D-11 BMatP= 7.88D-11
 IDIUse=1 WtCom= 1.00D+00 WtEn= 0.00D+00
 Coeff-Com: -0.587D-03-0.551D-02 0.670D-02 0.989D-03-0.234D-01 0.230D-01
 Coeff-Com: -0.348D-02-0.133D-02-0.866D-02 0.243D-01 0.613D-02-0.272D-01
 Coeff-Com: -0.493D-01-0.112D+00 0.259D+00 0.911D+00
 Coeff:     -0.587D-03-0.551D-02 0.670D-02 0.989D-03-0.234D-01 0.230D-01
 Coeff:     -0.348D-02-0.133D-02-0.866D-02 0.243D-01 0.613D-02-0.272D-01
 Coeff:     -0.493D-01-0.112D+00 0.259D+00 0.911D+00
 Gap=     0.088 Goal=   None    Shift=    0.000
 Gap=     0.138 Goal=   None    Shift=    0.000
 RMSDP=1.47D-07 MaxDP=3.02D-05 DE=-7.49D-10 OVMax= 2.62D-04

 Cycle  40  Pass 1  IDiag  1:
 RMSU=  1.83D-09    CP:  1.00D+00 -1.04D+00  3.00D+00  3.00D+00 -3.00D+00
                    CP:  3.00D+00  3.00D+00  2.00D+00 -3.00D+00  3.00D+00
                    CP:  8.46D-01  1.25D+00  1.46D+00  2.17D+00  1.14D+00
                    CP:  1.22D+00  1.73D+00  1.24D+00  1.74D+00
 E= -2464.40477775563     Delta-E=        0.000000000098 Rises=F Damp=F
 DIIS: error= 1.55D-07 at cycle  40 NSaved=  17.
 NSaved=17 IEnMin=16 EnMin= -2464.40477775573     IErMin=16 ErrMin= 1.03D-07
 ErrMax= 1.55D-07  0.00D+00 EMaxC= 1.00D-01 BMatC= 6.78D-11 BMatP= 5.83D-11
 IDIUse=1 WtCom= 1.00D+00 WtEn= 0.00D+00
 Coeff-Com:  0.495D-03-0.925D-02-0.788D-03 0.241D-02 0.223D-01-0.223D-01
 Coeff-Com:  0.795D-02 0.258D-02-0.197D-02-0.121D-01 0.514D-02 0.343D-01
 Coeff-Com: -0.122D-01-0.116D+00-0.127D+00 0.134D+00 0.109D+01
 Coeff:      0.495D-03-0.925D-02-0.788D-03 0.241D-02 0.223D-01-0.223D-01
 Coeff:      0.795D-02 0.258D-02-0.197D-02-0.121D-01 0.514D-02 0.343D-01
 Coeff:     -0.122D-01-0.116D+00-0.127D+00 0.134D+00 0.109D+01
 Gap=     0.088 Goal=   None    Shift=    0.000
 Gap=     0.138 Goal=   None    Shift=    0.000
 RMSDP=4.16D-08 MaxDP=7.61D-06 DE= 9.82D-11 OVMax= 6.95D-05

 Cycle  41  Pass 1  IDiag  1:
 Restarting incremental Fock formation.
 E= -2464.40477775565     Delta-E=       -0.000000000027 Rises=F Damp=F
 DIIS: error= 5.94D-08 at cycle  41 NSaved=  18.
 NSaved=18 IEnMin=16 EnMin= -2464.40477775573     IErMin=18 ErrMin= 5.94D-08
 ErrMax= 5.94D-08  0.00D+00 EMaxC= 1.00D-01 BMatC= 9.50D-12 BMatP= 5.83D-11
 IDIUse=1 WtCom= 1.00D+00 WtEn= 0.00D+00
 Coeff-Com:  0.301D-03-0.383D-02-0.167D-02 0.968D-03 0.135D-01-0.150D-01
 Coeff-Com:  0.660D-02 0.150D-02 0.206D-02-0.125D-01-0.100D-02 0.255D-01
 Coeff-Com:  0.282D-02-0.342D-01-0.964D-01-0.122D+00 0.446D+00 0.788D+00
 Coeff:      0.301D-03-0.383D-02-0.167D-02 0.968D-03 0.135D-01-0.150D-01
 Coeff:      0.660D-02 0.150D-02 0.206D-02-0.125D-01-0.100D-02 0.255D-01
 Coeff:      0.282D-02-0.342D-01-0.964D-01-0.122D+00 0.446D+00 0.788D+00
 Gap=     0.088 Goal=   None    Shift=    0.000
 Gap=     0.138 Goal=   None    Shift=    0.000
 RMSDP=1.61D-08 MaxDP=3.36D-06 DE=-2.73D-11 OVMax= 2.68D-05

 Cycle  42  Pass 1  IDiag  1:
 RMSU=  1.60D-08    CP:  1.00D+00
 E= -2464.40477775600     Delta-E=       -0.000000000342 Rises=F Damp=F
 DIIS: error= 1.07D-07 at cycle  42 NSaved=  19.
 NSaved=19 IEnMin=19 EnMin= -2464.40477775600     IErMin=18 ErrMin= 5.94D-08
 ErrMax= 1.07D-07  0.00D+00 EMaxC= 1.00D-01 BMatC= 2.79D-11 BMatP= 9.50D-12
 IDIUse=1 WtCom= 1.00D+00 WtEn= 0.00D+00
 Coeff-Com:  0.226D-04 0.890D-03-0.247D-03-0.407D-03-0.972D-03 0.152D-03
 Coeff-Com:  0.565D-03-0.142D-03 0.134D-02-0.172D-02-0.152D-02 0.692D-02
 Coeff-Com:  0.162D-02-0.103D-03 0.339D-02-0.536D-01-0.158D+00 0.286D+00
 Coeff-Com:  0.916D+00
 Coeff:      0.226D-04 0.890D-03-0.247D-03-0.407D-03-0.972D-03 0.152D-03
 Coeff:      0.565D-03-0.142D-03 0.134D-02-0.172D-02-0.152D-02 0.692D-02
 Coeff:      0.162D-02-0.103D-03 0.339D-02-0.536D-01-0.158D+00 0.286D+00
 Coeff:      0.916D+00
 Gap=     0.088 Goal=   None    Shift=    0.000
 Gap=     0.138 Goal=   None    Shift=    0.000
 RMSDP=3.40D-08 MaxDP=6.66D-06 DE=-3.42D-10 OVMax= 5.90D-05

 Cycle  43  Pass 1  IDiag  1:
 RMSU=  5.55D-09    CP:  1.00D+00 -1.08D+00
 E= -2464.40477775560     Delta-E=        0.000000000393 Rises=F Damp=F
 DIIS: error= 4.61D-08 at cycle  43 NSaved=  20.
 NSaved=20 IEnMin=19 EnMin= -2464.40477775600     IErMin=20 ErrMin= 4.61D-08
 ErrMax= 4.61D-08  0.00D+00 EMaxC= 1.00D-01 BMatC= 5.43D-12 BMatP= 9.50D-12
 IDIUse=1 WtCom= 1.00D+00 WtEn= 0.00D+00
 Coeff-Com: -0.404D-04 0.106D-02 0.189D-03-0.401D-03-0.274D-02 0.253D-02
 Coeff-Com: -0.784D-03-0.305D-03 0.306D-03 0.101D-02-0.394D-03 0.146D-02
 Coeff-Com: -0.155D-03-0.718D-03 0.143D-01-0.398D-02-0.138D+00 0.130D-01
 Coeff-Com:  0.404D+00 0.710D+00
 Coeff:     -0.404D-04 0.106D-02 0.189D-03-0.401D-03-0.274D-02 0.253D-02
 Coeff:     -0.784D-03-0.305D-03 0.306D-03 0.101D-02-0.394D-03 0.146D-02
 Coeff:     -0.155D-03-0.718D-03 0.143D-01-0.398D-02-0.138D+00 0.130D-01
 Coeff:      0.404D+00 0.710D+00
 Gap=     0.088 Goal=   None    Shift=    0.000
 Gap=     0.138 Goal=   None    Shift=    0.000
 RMSDP=1.61D-08 MaxDP=3.17D-06 DE= 3.93D-10 OVMax= 2.77D-05

 Cycle  44  Pass 1  IDiag  1:
 RMSU=  3.38D-10    CP:  1.00D+00 -2.07D+00  1.36D+00
 E= -2464.40477775579     Delta-E=       -0.000000000187 Rises=F Damp=F
 DIIS: error= 1.22D-08 at cycle  44 NSaved=  20.
 NSaved=20 IEnMin=18 EnMin= -2464.40477775600     IErMin=20 ErrMin= 1.22D-08
 ErrMax= 1.22D-08  0.00D+00 EMaxC= 1.00D-01 BMatC= 3.73D-13 BMatP= 5.43D-12
 IDIUse=1 WtCom= 1.00D+00 WtEn= 0.00D+00
 Coeff-Com: -0.167D-04 0.654D-04 0.399D-04-0.349D-03 0.413D-03-0.137D-03
 Coeff-Com: -0.477D-04-0.101D-03-0.785D-04 0.138D-03-0.539D-03 0.374D-03
 Coeff-Com:  0.749D-03-0.350D-02 0.688D-03 0.420D-01-0.399D-01-0.208D+00
 Coeff-Com: -0.172D-01 0.122D+01
 Coeff:     -0.167D-04 0.654D-04 0.399D-04-0.349D-03 0.413D-03-0.137D-03
 Coeff:     -0.477D-04-0.101D-03-0.785D-04 0.138D-03-0.539D-03 0.374D-03
 Coeff:      0.749D-03-0.350D-02 0.688D-03 0.420D-01-0.399D-01-0.208D+00
 Coeff:     -0.172D-01 0.122D+01
 Gap=     0.088 Goal=   None    Shift=    0.000
 Gap=     0.138 Goal=   None    Shift=    0.000
 RMSDP=6.78D-09 MaxDP=1.32D-06 DE=-1.87D-10 OVMax= 1.15D-05

 Cycle  45  Pass 1  IDiag  1:
 RMSU=  1.64D-10    CP:  1.00D+00 -2.49D+00  1.46D+00  2.00D+00
 E= -2464.40477775552     Delta-E=        0.000000000271 Rises=F Damp=F
 DIIS: error= 4.36D-09 at cycle  45 NSaved=  20.
 NSaved=20 IEnMin=17 EnMin= -2464.40477775600     IErMin=20 ErrMin= 4.36D-09
 ErrMax= 4.36D-09  0.00D+00 EMaxC= 1.00D-01 BMatC= 5.51D-14 BMatP= 3.73D-13
 IDIUse=1 WtCom= 1.00D+00 WtEn= 0.00D+00
 Large coefficients: NSaved= 20 BigCof=    0.00 CofMax=   10.00 Det=-2.47D-15
 Inversion failed.  Reducing to 19 matrices.
 Large coefficients: NSaved= 19 BigCof=    0.00 CofMax=   10.00 Det=-2.67D-15
 Inversion failed.  Reducing to 18 matrices.
 Large coefficients: NSaved= 18 BigCof=    0.00 CofMax=   10.00 Det=-2.68D-15
 Inversion failed.  Reducing to 17 matrices.
 Large coefficients: NSaved= 17 BigCof=    0.00 CofMax=   10.00 Det=-2.70D-15
 Inversion failed.  Reducing to 16 matrices.
 Large coefficients: NSaved= 16 BigCof=    0.00 CofMax=   10.00 Det=-2.74D-15
 Inversion failed.  Reducing to 15 matrices.
 Coeff-Com: -0.388D-05-0.600D-04-0.765D-05 0.266D-05-0.393D-03 0.177D-03
 Coeff-Com:  0.908D-03-0.774D-03 0.342D-03 0.123D-01-0.111D-01-0.618D-01
 Coeff-Com: -0.515D-01 0.332D+00 0.780D+00
 Coeff:     -0.388D-05-0.600D-04-0.765D-05 0.266D-05-0.393D-03 0.177D-03
 Coeff:      0.908D-03-0.774D-03 0.342D-03 0.123D-01-0.111D-01-0.618D-01
 Coeff:     -0.515D-01 0.332D+00 0.780D+00
 Gap=     0.088 Goal=   None    Shift=    0.000
 Gap=     0.138 Goal=   None    Shift=    0.000
[...]
    38 C(13)  Bbb    -0.0202    -2.712    -0.968    -0.905  0.9896  0.0586  0.1314
              Bcc     0.0415     5.571     1.988     1.858 -0.1404  0.1912  0.9715
 
              Baa    -0.0067    -0.898    -0.320    -0.300 -0.1636  0.1708  0.9716
    39 C(13)  Bbb     0.0026     0.355     0.127     0.118 -0.2352  0.9498 -0.2065
              Bcc     0.0040     0.543     0.194     0.181  0.9581  0.2623  0.1153
 
              Baa    -0.0046    -0.623    -0.222    -0.208 -0.5261  0.8217 -0.2190
    40 C(13)  Bbb    -0.0040    -0.542    -0.193    -0.181  0.8339  0.5490  0.0563
              Bcc     0.0087     1.165     0.416     0.389 -0.1665  0.1530  0.9741
 
              Baa    -0.0039    -0.519    -0.185    -0.173 -0.1667  0.1586  0.9732
    41 C(13)  Bbb     0.0017     0.223     0.079     0.074 -0.2476  0.9486 -0.1970
              Bcc     0.0022     0.296     0.106     0.099  0.9544  0.2738  0.1189
 
              Baa    -0.0055    -0.740    -0.264    -0.247 -0.3878  0.8931 -0.2280
    42 C(13)  Bbb    -0.0049    -0.663    -0.237    -0.221  0.9062  0.4147  0.0832
              Bcc     0.0105     1.403     0.500     0.468 -0.1688  0.1743  0.9701
 
              Baa    -0.0001    -0.016    -0.006    -0.005 -0.4785  0.7940 -0.3750
    43 C(13)  Bbb    -0.0001    -0.013    -0.005    -0.004 -0.2781  0.2680  0.9224
              Bcc     0.0002     0.029     0.010     0.010  0.8329  0.5457  0.0926
 
              Baa    -0.0006    -0.022    -0.008    -0.007 -0.6207  0.6872 -0.3774
    44 N(14)  Bbb    -0.0004    -0.016    -0.006    -0.005  0.3365  0.6683  0.6635
              Bcc     0.0010     0.038     0.014     0.013  0.7082  0.2849 -0.6460
 
              Baa    -0.0001    -0.020    -0.007    -0.007  0.4245 -0.4263  0.7988
    45 C(13)  Bbb    -0.0000    -0.003    -0.001    -0.001 -0.3252  0.7516  0.5739
              Bcc     0.0002     0.024     0.008     0.008  0.8450  0.5034 -0.1804
 
              Baa    -0.0001    -0.008    -0.003    -0.003  0.2681 -0.3487  0.8981
    46 C(13)  Bbb    -0.0000    -0.006    -0.002    -0.002 -0.1296  0.9107  0.3923
              Bcc     0.0001     0.014     0.005     0.005  0.9546  0.2215 -0.1990
 
              Baa    -0.0001     0.004     0.001     0.001 -0.1088  0.4276  0.8974
    47 O(17)  Bbb    -0.0000     0.003     0.001     0.001 -0.1694  0.8816 -0.4406
              Bcc     0.0001    -0.006    -0.002    -0.002  0.9795  0.2000  0.0234
 
              Baa    -0.0001    -0.007    -0.003    -0.003  0.2302 -0.6212  0.7491
    48 C(13)  Bbb    -0.0000    -0.006    -0.002    -0.002 -0.2403  0.7097  0.6623
              Bcc     0.0001     0.013     0.005     0.004  0.9430  0.3325 -0.0140
 
              Baa    -0.0001    -0.014    -0.005    -0.005  0.4379 -0.6184  0.6526
    49 C(13)  Bbb    -0.0001    -0.012    -0.004    -0.004 -0.3725  0.5359  0.7577
              Bcc     0.0002     0.026     0.009     0.009  0.8183  0.5748 -0.0043
 
              Baa    -0.0036    -0.483    -0.172    -0.161 -0.1698  0.1702  0.9707
    50 C(13)  Bbb     0.0015     0.198     0.071     0.066 -0.5194  0.8216 -0.2349
              Bcc     0.0021     0.285     0.102     0.095  0.8375  0.5441  0.0511
 
              Baa    -0.0049    -0.651    -0.232    -0.217 -0.3011  0.9305 -0.2088
    51 C(13)  Bbb    -0.0044    -0.595    -0.212    -0.198  0.9363  0.3299  0.1202
              Bcc     0.0093     1.246     0.445     0.416 -0.1807  0.1593  0.9706
 
              Baa    -0.0107    -0.414    -0.148    -0.138  0.5495  0.2708  0.7904
    52 N(14)  Bbb    -0.0026    -0.099    -0.035    -0.033 -0.2970  0.9476 -0.1181
              Bcc     0.0133     0.513     0.183     0.171  0.7810  0.1698 -0.6010
 
              Baa    -0.0011    -0.182    -0.065    -0.061  0.0044  0.0907  0.9959
    53 B(11)  Bbb     0.0004     0.061     0.022     0.020 -0.0238  0.9956 -0.0905
              Bcc     0.0007     0.121     0.043     0.040  0.9997  0.0233 -0.0066
 
              Baa    -0.0016    -0.789    -0.281    -0.263 -0.1750  0.8263  0.5353
    54 F(19)  Bbb    -0.0008    -0.403    -0.144    -0.134 -0.2128 -0.5626  0.7989
              Bcc     0.0024     1.192     0.425     0.398  0.9613  0.0259  0.2743
 
              Baa    -0.0017    -0.830    -0.296    -0.277  0.1308  0.8451  0.5184
    55 F(19)  Bbb    -0.0008    -0.412    -0.147    -0.137  0.2568 -0.5339  0.8056
              Bcc     0.0025     1.242     0.443     0.414  0.9576  0.0277 -0.2868
 
              Baa    -0.0020    -1.071    -0.382    -0.357 -0.1230 -0.1972  0.9726
    56 H(1)   Bbb     0.0003     0.170     0.061     0.057  0.6103  0.7578  0.2308
              Bcc     0.0017     0.901     0.321     0.300  0.7826 -0.6220 -0.0272
 
              Baa    -0.0010    -0.551    -0.197    -0.184  0.0610  0.2042  0.9770
    57 H(1)   Bbb     0.0000     0.013     0.005     0.004  0.9956 -0.0818 -0.0450
              Bcc     0.0010     0.538     0.192     0.180  0.0708  0.9755 -0.2083
 
              Baa    -0.0022    -1.174    -0.419    -0.392  0.0256  0.4026  0.9150
    58 H(1)   Bbb     0.0006     0.310     0.111     0.103  0.9770  0.1836 -0.1082
              Bcc     0.0016     0.864     0.308     0.288 -0.2116  0.8968 -0.3886
 
              Baa    -0.0011    -0.570    -0.203    -0.190  0.0958  0.1071  0.9896
    59 H(1)   Bbb     0.0004     0.196     0.070     0.065 -0.5979  0.8011 -0.0288
              Bcc     0.0007     0.374     0.133     0.125  0.7958  0.5889 -0.1408
 
              Baa    -0.0009    -0.505    -0.180    -0.168 -0.2462 -0.5576  0.7928
    60 H(1)   Bbb    -0.0009    -0.473    -0.169    -0.158  0.4206  0.6755  0.6057
              Bcc     0.0018     0.978     0.349     0.326  0.8732 -0.4826 -0.0682
 
              Baa    -0.0018    -0.949    -0.339    -0.317  0.7822 -0.6224 -0.0290
    61 H(1)   Bbb    -0.0008    -0.436    -0.155    -0.145  0.1258  0.1122  0.9857
              Bcc     0.0026     1.385     0.494     0.462  0.6102  0.7746 -0.1660
 
              Baa    -0.0004    -0.203    -0.073    -0.068  0.1773  0.1097  0.9780
    62 H(1)   Bbb    -0.0002    -0.099    -0.035    -0.033  0.9592  0.2033 -0.1967
              Bcc     0.0006     0.303     0.108     0.101 -0.2204  0.9730 -0.0692
 
              Baa    -0.0002    -0.125    -0.045    -0.042  0.1228  0.0817  0.9891
    63 H(1)   Bbb    -0.0001    -0.062    -0.022    -0.021  0.5267  0.8393 -0.1347
              Bcc     0.0004     0.187     0.067     0.062  0.8411 -0.5375 -0.0601
 
              Baa    -0.0002    -0.085    -0.030    -0.028  0.6066  0.7931  0.0549
    64 H(1)   Bbb    -0.0001    -0.071    -0.025    -0.024  0.0286 -0.0908  0.9955
              Bcc     0.0003     0.156     0.056     0.052  0.7945 -0.6022 -0.0778
 
              Baa    -0.0002    -0.086    -0.031    -0.029  0.2759  0.8938  0.3536
    65 H(1)   Bbb    -0.0001    -0.064    -0.023    -0.021  0.2510 -0.4222  0.8711
              Bcc     0.0003     0.150     0.053     0.050  0.9278 -0.1516 -0.3408
 
              Baa    -0.0001    -0.041    -0.015    -0.014  0.3403  0.8780 -0.3366
    66 H(1)   Bbb    -0.0000    -0.026    -0.009    -0.009 -0.2435  0.4280  0.8704
              Bcc     0.0001     0.067     0.024     0.022  0.9082 -0.2142  0.3595
 
              Baa    -0.0002    -0.091    -0.033    -0.030  0.3516  0.9361  0.0034
    67 H(1)   Bbb    -0.0001    -0.035    -0.012    -0.012 -0.5050  0.1866  0.8427
              Bcc     0.0002     0.126     0.045     0.042  0.7883 -0.2980  0.5383
 
              Baa    -0.0001    -0.029    -0.010    -0.010  0.2710  0.7674  0.5811
    68 H(1)   Bbb    -0.0000    -0.024    -0.009    -0.008 -0.5374 -0.3802  0.7527
              Bcc     0.0001     0.053     0.019     0.018  0.7986 -0.5162  0.3094
 
              Baa    -0.0001    -0.044    -0.016    -0.015  0.2671  0.5790  0.7703
    69 H(1)   Bbb    -0.0001    -0.031    -0.011    -0.010  0.6500  0.4819 -0.5876
              Bcc     0.0001     0.075     0.027     0.025  0.7115 -0.6576  0.2477
 
              Baa    -0.0000    -0.022    -0.008    -0.007  0.2544  0.8537  0.4544
    70 H(1)   Bbb    -0.0000    -0.021    -0.008    -0.007 -0.3181 -0.3699  0.8729
              Bcc     0.0001     0.043     0.015     0.014  0.9133 -0.3667  0.1774
 
              Baa    -0.0000    -0.020    -0.007    -0.007 -0.0166 -0.0015  0.9999
    71 H(1)   Bbb    -0.0000    -0.019    -0.007    -0.006  0.4137  0.9104  0.0082
              Bcc     0.0001     0.040     0.014     0.013  0.9103 -0.4138  0.0145
 
              Baa    -0.0001    -0.032    -0.011    -0.011 -0.0887 -0.3271  0.9408
    72 H(1)   Bbb    -0.0000    -0.021    -0.008    -0.007  0.1061  0.9361  0.3354
              Bcc     0.0001     0.053     0.019     0.018  0.9904 -0.1296  0.0484
 
              Baa    -0.0001    -0.036    -0.013    -0.012  0.2178  0.9606 -0.1729
    73 H(1)   Bbb    -0.0001    -0.029    -0.010    -0.010  0.1219  0.1490  0.9813
              Bcc     0.0001     0.065     0.023     0.022  0.9684 -0.2348 -0.0847
 
              Baa    -0.0002    -0.122    -0.044    -0.041  0.1481  0.1150  0.9823
    74 H(1)   Bbb    -0.0001    -0.045    -0.016    -0.015  0.1388  0.9810 -0.1358
              Bcc     0.0003     0.167     0.060     0.056  0.9792 -0.1565 -0.1293
 
              Baa    -0.0004    -0.209    -0.074    -0.070  0.1442  0.1578  0.9769
    75 H(1)   Bbb    -0.0001    -0.063    -0.023    -0.021  0.8232 -0.5670 -0.0299
              Bcc     0.0005     0.272     0.097     0.091  0.5492  0.8085 -0.2117
 
              Baa    -0.0025    -1.349    -0.482    -0.450 -0.0109  0.7851 -0.6193
    76 H(1)   Bbb    -0.0004    -0.220    -0.079    -0.074 -0.1023  0.6152  0.7817
              Bcc     0.0029     1.570     0.560     0.524  0.9947  0.0719  0.0736
 
              Baa    -0.0036    -1.919    -0.685    -0.640  0.0313  0.8392 -0.5430
    77 H(1)   Bbb    -0.0003    -0.161    -0.057    -0.054  0.8780 -0.2827 -0.3862
              Bcc     0.0039     2.080     0.742     0.694  0.4776  0.4647  0.7456
 
              Baa    -0.0036    -1.918    -0.684    -0.640 -0.0972  0.8340 -0.5431
    78 H(1)   Bbb    -0.0003    -0.169    -0.060    -0.056  0.8671  0.3389  0.3651
              Bcc     0.0039     2.087     0.745     0.696 -0.4886  0.4355  0.7561
 
              Baa    -0.0025    -1.350    -0.482    -0.450 -0.0499  0.7832 -0.6198
    79 H(1)   Bbb    -0.0004    -0.222    -0.079    -0.074  0.0812  0.6217  0.7790
              Bcc     0.0029     1.572     0.561     0.524  0.9954 -0.0114 -0.0946
 
              Baa    -0.0022    -1.173    -0.418    -0.391 -0.0325  0.4008  0.9156
    80 H(1)   Bbb     0.0006     0.306     0.109     0.102  0.9887 -0.1210  0.0880
              Bcc     0.0016     0.866     0.309     0.289  0.1461  0.9081 -0.3923
 
              Baa    -0.0020    -1.070    -0.382    -0.357  0.1531 -0.1887  0.9700
    81 H(1)   Bbb     0.0003     0.173     0.062     0.058 -0.6513  0.7190  0.2427
              Bcc     0.0017     0.897     0.320     0.299  0.7432  0.6689  0.0128
 
              Baa    -0.0010    -0.550    -0.196    -0.183 -0.0540  0.2005  0.9782
    82 H(1)   Bbb     0.0000     0.010     0.004     0.003  0.9894  0.1428  0.0254
              Bcc     0.0010     0.539     0.193     0.180 -0.1346  0.9692 -0.2061
 
              Baa    -0.0011    -0.570    -0.203    -0.190 -0.0810  0.1050  0.9912
    83 H(1)   Bbb     0.0004     0.197     0.070     0.066  0.5595  0.8277 -0.0420
              Bcc     0.0007     0.373     0.133     0.124  0.8248 -0.5512  0.1258
 
              Baa    -0.0009    -0.506    -0.180    -0.169  0.2797 -0.5230  0.8051
    84 H(1)   Bbb    -0.0009    -0.472    -0.169    -0.158 -0.4535  0.6672  0.5909
              Bcc     0.0018     0.978     0.349     0.326  0.8462  0.5304  0.0505
 
              Baa    -0.0018    -0.946    -0.338    -0.316  0.7457  0.6662  0.0125
    85 H(1)   Bbb    -0.0008    -0.433    -0.155    -0.145 -0.1233  0.1195  0.9851
              Bcc     0.0026     1.380     0.492     0.460 -0.6548  0.7362 -0.1713
 
              Baa    -0.0004    -0.205    -0.073    -0.068 -0.1596  0.1707  0.9723
    86 H(1)   Bbb    -0.0001    -0.035    -0.012    -0.012  0.8188  0.5731  0.0338
              Bcc     0.0004     0.240     0.086     0.080 -0.5514  0.8015 -0.2312
 
              Baa    -0.0002    -0.118    -0.042    -0.039 -0.1579  0.1798  0.9710
    87 H(1)   Bbb    -0.0001    -0.048    -0.017    -0.016 -0.1715  0.9633 -0.2062
              Bcc     0.0003     0.166     0.059     0.055  0.9724  0.1991  0.1213
 
              Baa    -0.0002    -0.089    -0.032    -0.030 -0.3805  0.7211 -0.5790
    88 H(1)   Bbb    -0.0001    -0.064    -0.023    -0.021 -0.5192  0.3516  0.7790
              Bcc     0.0003     0.153     0.055     0.051  0.7653  0.5971  0.2406
 
              Baa    -0.0001    -0.080    -0.029    -0.027 -0.0681 -0.6809  0.7292
    89 H(1)   Bbb    -0.0001    -0.070    -0.025    -0.023 -0.1995  0.7254  0.6588
              Bcc     0.0003     0.150     0.053     0.050  0.9775  0.1006  0.1853
 
              Baa    -0.0002    -0.086    -0.031    -0.029  0.3363 -0.5543  0.7613
    90 H(1)   Bbb    -0.0001    -0.032    -0.012    -0.011  0.2142  0.8323  0.5113
              Bcc     0.0002     0.118     0.042     0.039  0.9171  0.0089 -0.3986
 
              Baa    -0.0001    -0.043    -0.015    -0.014 -0.4658  0.8543 -0.2306
    91 H(1)   Bbb    -0.0001    -0.027    -0.010    -0.009  0.2857  0.3918  0.8746
              Bcc     0.0001     0.070     0.025     0.023  0.8375  0.3415 -0.4265
 
              Baa    -0.0001    -0.032    -0.011    -0.011  0.2214 -0.2829  0.9333
    92 H(1)   Bbb    -0.0000    -0.021    -0.007    -0.007 -0.0820  0.9482  0.3069
              Bcc     0.0001     0.052     0.019     0.017  0.9717  0.1444 -0.1867
 
              Baa    -0.0000    -0.025    -0.009    -0.008  0.3319 -0.4518  0.8281
    93 H(1)   Bbb    -0.0000    -0.021    -0.007    -0.007 -0.1283  0.8481  0.5141
              Bcc     0.0001     0.046     0.016     0.015  0.9346  0.2768 -0.2235
 
              Baa    -0.0000    -0.026    -0.009    -0.009 -0.2472  0.2947  0.9231
    94 H(1)   Bbb    -0.0000    -0.025    -0.009    -0.008 -0.2745  0.8923 -0.3584
              Bcc     0.0001     0.051     0.018     0.017  0.9293  0.3420  0.1397
 
              Baa    -0.0000    -0.021    -0.007    -0.007  0.0421 -0.0865  0.9954
    95 H(1)   Bbb    -0.0000    -0.019    -0.007    -0.006 -0.3768  0.9213  0.0960
              Bcc     0.0001     0.039     0.014     0.013  0.9253  0.3791 -0.0062
 
              Baa    -0.0001    -0.035    -0.012    -0.012  0.4802 -0.6163  0.6242
    96 H(1)   Bbb    -0.0001    -0.029    -0.010    -0.010 -0.3651  0.5066  0.7811
              Bcc     0.0001     0.064     0.023     0.021  0.7975  0.6030 -0.0183
 
              Baa    -0.0001    -0.030    -0.011    -0.010 -0.5275  0.8487  0.0383
    97 H(1)   Bbb    -0.0000    -0.024    -0.008    -0.008  0.1789  0.0669  0.9816
              Bcc     0.0001     0.054     0.019     0.018  0.8305  0.5246 -0.1872
 
              Baa    -0.0002    -0.127    -0.045    -0.042 -0.1580  0.1471  0.9764
    98 H(1)   Bbb    -0.0001    -0.059    -0.021    -0.020 -0.5559  0.8040 -0.2111
              Bcc     0.0003     0.186     0.066     0.062  0.8161  0.5762  0.0452
 
              Baa    -0.0004    -0.205    -0.073    -0.068 -0.1695  0.1230  0.9778
    99 H(1)   Bbb    -0.0002    -0.129    -0.046    -0.043  0.9716 -0.1456  0.1867
              Bcc     0.0006     0.334     0.119     0.111  0.1654  0.9817 -0.0949
 

 ---------------------------------------------------------------------------------

 No NMR shielding tensors so no spin-rotation constants.
 Leave Link  601 at Fri Nov  7 16:37:55 2025, MaxMem= 30870077440 cpu:             263.7 elap:               4.7
 (Enter /public/software/gauss/g16/l9999.exe)
 1\1\GINC-CU015\SP\UM062X\def2TZVPP\C43H44B1F2N5O4(1-,2)\BAIDING\07-Nov
 -2025\0\\#p M062X/DEF2TZVPP scrf=(solvent=water) em=GD3\\Energy calcul
 ation for M100036085_reduced\\-1,2\C,0,5.700712,-3.223275,-0.307335\C,
 0,4.352493,-2.620666,-0.041704\C,0,3.185846,-3.371993,0.070973\C,0,2.0
 939,-2.494622,0.222394\C,0,0.69325,-2.793922,0.387794\C,0,0.16424,-4.0
 39431,0.290796\C,0,-1.23714,-4.407845,0.468535\C,0,-2.260627,-3.479315
 ,0.763033\C,0,-3.57741,-3.892463,0.916979\C,0,-3.940041,-5.244844,0.78
 6457\C,0,-5.374447,-5.691285,0.969673\N,0,-6.275796,-5.19437,-0.096301
 \C,0,-5.955961,-5.748388,-1.419437\C,0,-6.15573,-7.276253,-1.498002\O,
 0,-7.159586,-7.725754,-0.574089\C,0,-8.214715,-6.769583,-0.454936\C,0,
 -7.700864,-5.472198,0.203512\C,0,-2.928483,-6.169013,0.498478\C,0,-1.6
 04847,-5.761495,0.342424\N,0,2.573676,-1.208378,0.207016\C,0,3.96116,-
 1.245299,0.073282\C,0,4.710929,-0.03936,0.003386\C,0,6.178177,-0.08265
 7,-0.010212\C,0,6.901145,-0.709045,1.033169\C,0,8.282463,-0.743605,1.0
 34881\C,0,8.995265,-0.169251,-0.039792\N,0,10.400033,-0.213561,-0.0548
 63\O,0,11.035609,0.319536,-1.021639\O,0,11.021032,-0.786559,0.898346\C
 ,0,8.2967,0.449279,-1.099187\C,0,6.916258,0.499916,-1.068278\C,0,4.032
 373,1.208624,-0.054707\C,0,4.505737,2.55852,0.051991\C,0,5.891461,3.08
 1409,0.292002\C,0,3.383329,3.37711,-0.041088\C,0,2.239449,2.565481,-0.
 172596\C,0,0.856298,2.946699,-0.315667\C,0,0.399859,4.217745,-0.187347
 \C,0,-0.979314,4.66923,-0.347556\C,0,-1.271683,6.03758,-0.162413\C,0,-
 2.566009,6.526791,-0.299858\C,0,-3.629276,5.672826,-0.629439\C,0,-5.03
 8361,6.201629,-0.797512\N,0,-5.630447,6.695988,0.466592\C,0,-5.979155,
 5.601336,1.404429\C,0,-7.45703,5.172047,1.301022\O,0,-7.936404,5.33008
 4,-0.036636\C,0,-7.985354,6.716507,-0.410106\C,0,-6.826384,7.513819,0.
 222963\C,0,-3.342804,4.312204,-0.818602\C,0,-2.049908,3.815159,-0.6817
 82\N,0,2.642959,1.253216,-0.165219\B,0,1.69628,0.050367,0.035957\F,0,0
 .844664,-0.094226,-1.077982\F,0,0.891842,0.245535,1.176575\H,0,6.33295
 ,-3.264425,0.585693\H,0,5.573375,-4.248306,-0.66773\H,0,6.256703,-2.66
 2853,-1.064267\H,0,3.126287,-4.451774,0.041514\H,0,0.050975,-1.952132,
 0.623869\H,0,0.826722,-4.870132,0.053931\H,0,-2.022156,-2.426276,0.874
 907\H,0,-4.341128,-3.155073,1.148282\H,0,-5.396938,-6.785898,1.069715\
 H,0,-5.753659,-5.282861,1.912724\H,0,-6.603775,-5.249042,-2.147783\H,0
 ,-4.926025,-5.50112,-1.690117\H,0,-6.427907,-7.567174,-2.52443\H,0,-5.
 24257,-7.813519,-1.226099\H,0,-8.64334,-6.563284,-1.446674\H,0,-8.9954
 61,-7.23398,0.153614\H,0,-8.321143,-4.635944,-0.146439\H,0,-7.818178,-
 5.527275,1.288629\H,0,-3.180334,-7.221775,0.399174\H,0,-0.837872,-6.49
 8395,0.11893\H,0,6.357554,-1.143686,1.865661\H,0,8.82585,-1.197003,1.8
 53795\H,0,8.8491,0.869406,-1.92971\H,0,6.383082,0.967744,-1.889409\H,0
 ,6.42724,2.490303,1.040115\H,0,6.508865,3.084503,-0.612293\H,0,5.83079
 ,4.11252,0.652428\H,0,3.38807,4.458574,-0.014007\H,0,0.165037,2.147059
 ,-0.560205\H,0,1.109862,5.003494,0.064707\H,0,-0.462739,6.718856,0.088
 529\H,0,-2.753747,7.587091,-0.154887\H,0,-5.015426,7.055278,-1.484818\
 H,0,-5.651668,5.423237,-1.272833\H,0,-5.323766,4.751418,1.20185\H,0,-5
 .780638,5.918335,2.436947\H,0,-7.575099,4.115398,1.55613\H,0,-8.084626
 ,5.7538,1.992018\H,0,-7.928371,6.730963,-1.502324\H,0,-8.950971,7.1548
 74,-0.113607\H,0,-6.570678,8.359738,-0.42235\H,0,-7.142583,7.930274,1.
 185543\H,0,-4.149521,3.632734,-1.081561\H,0,-1.873284,2.755366,-0.8364
 06\\Version=ES64L-G16RevA.03\State=2-A\HF=-2464.4047778\S2=0.77509\S2-
 1=0.\S2A=0.750303\RMSD=3.522e-09\Dipole=-14.7750455,0.7719695,-0.02824
 13\Quadrupole=-187.7964295,108.4751661,79.3212633,-4.90317,-0.167256,4
 .9746009\PG=C01 [X(C43H44B1F2N5O4)]\\@


 DON'T WORRY CHARLIE BROWN...WE LEARN MORE FROM LOSING 
 THAN WE DO FROM WINNING.
 THEN THAT MAKES ME THE SMARTEST PERSON IN THE WORLD...
 CHARLES SCHULZ 'PEANUTS'
 Job cpu time:       4 days  6 hours 58 minutes 28.2 seconds.
 Elapsed time:       0 days  1 hours 37 minutes 32.4 seconds.
 File lengths (MBytes):  RWF=   5711 Int=      0 D2E=      0 Chk=    374 Scr=      1
 Normal termination of Gaussian 16 at Fri Nov  7 16:37:57 2025.
