 Entering Gaussian System, Link 0=g16
 Input=M100036283_reduced_sp.gjf
 Output=M100036283_reduced_sp.log
 Initial command:
 /public/software/gauss/g16/l1.exe "/public/home/baiding/1101_v2_sp/tmp_M100036283_reduced_sp_1568608/Gau-46513.inp" -scrdir="/public/home/baiding/1101_v2_sp/tmp_M100036283_reduced_sp_1568608/"
 Entering Link 1 = /public/software/gauss/g16/l1.exe PID=     46514.
  
 Copyright (c) 1988,1990,1992,1993,1995,1998,2003,2009,2016,
            Gaussian, Inc.  All Rights Reserved.
  
 This is part of the Gaussian(R) 16 program.  It is based on
 the Gaussian(R) 09 system (copyright 2009, Gaussian, Inc.),
 the Gaussian(R) 03 system (copyright 2003, Gaussian, Inc.),
 the Gaussian(R) 98 system (copyright 1998, Gaussian, Inc.),
 the Gaussian(R) 94 system (copyright 1995, Gaussian, Inc.),
 the Gaussian 92(TM) system (copyright 1992, Gaussian, Inc.),
 the Gaussian 90(TM) system (copyright 1990, Gaussian, Inc.),
 the Gaussian 88(TM) system (copyright 1988, Gaussian, Inc.),
 the Gaussian 86(TM) system (copyright 1986, Carnegie Mellon
 University), and the Gaussian 82(TM) system (copyright 1983,
 Carnegie Mellon University). Gaussian is a federally registered
 trademark of Gaussian, Inc.
  
 This software contains proprietary and confidential information,
 including trade secrets, belonging to Gaussian, Inc.
  
 This software is provided under written license and may be
 used, copied, transmitted, or stored only in accord with that
 written license.
  
 The following legend is applicable only to US Government
 contracts under FAR:
  
                    RESTRICTED RIGHTS LEGEND
  
 Use, reproduction and disclosure by the US Government is
 subject to restrictions as set forth in subparagraphs (a)
 and (c) of the Commercial Computer Software - Restricted
 Rights clause in FAR 52.227-19.
  
 Gaussian, Inc.
 340 Quinnipiac St., Bldg. 40, Wallingford CT 06492
  
  
 ---------------------------------------------------------------
 Warning -- This program may not be used in any manner that
 competes with the business of Gaussian, Inc. or will provide
 assistance to any competitor of Gaussian, Inc.  The licensee
 of this program is prohibited from giving any competitor of
 Gaussian, Inc. access to this program.  By using this program,
 the user acknowledges that Gaussian, Inc. is engaged in the
 business of creating and licensing software in the field of
 computational chemistry and represents and warrants to the
 licensee that it is not a competitor of Gaussian, Inc. and that
 it will not use this program in any manner prohibited above.
 ---------------------------------------------------------------
  

 Cite this work as:
 Gaussian 16, Revision A.03,
 M. J. Frisch, G. W. Trucks, H. B. Schlegel, G. E. Scuseria, 
 M. A. Robb, J. R. Cheeseman, G. Scalmani, V. Barone, 
 G. A. Petersson, H. Nakatsuji, X. Li, M. Caricato, A. V. Marenich, 
 J. Bloino, B. G. Janesko, R. Gomperts, B. Mennucci, H. P. Hratchian, 
 J. V. Ortiz, A. F. Izmaylov, J. L. Sonnenberg, D. Williams-Young, 
 F. Ding, F. Lipparini, F. Egidi, J. Goings, B. Peng, A. Petrone, 
 T. Henderson, D. Ranasinghe, V. G. Zakrzewski, J. Gao, N. Rega, 
 G. Zheng, W. Liang, M. Hada, M. Ehara, K. Toyota, R. Fukuda, 
 J. Hasegawa, M. Ishida, T. Nakajima, Y. Honda, O. Kitao, H. Nakai, 
 T. Vreven, K. Throssell, J. A. Montgomery, Jr., J. E. Peralta, 
 F. Ogliaro, M. J. Bearpark, J. J. Heyd, E. N. Brothers, K. N. Kudin, 
 V. N. Staroverov, T. A. Keith, R. Kobayashi, J. Normand, 
 K. Raghavachari, A. P. Rendell, J. C. Burant, S. S. Iyengar, 
 J. Tomasi, M. Cossi, J. M. Millam, M. Klene, C. Adamo, R. Cammi, 
 J. W. Ochterski, R. L. Martin, K. Morokuma, O. Farkas, 
 J. B. Foresman, and D. J. Fox, Gaussian, Inc., Wallingford CT, 2016.
 
 ******************************************
 Gaussian 16:  ES64L-G16RevA.03 25-Dec-2016
                 7-Nov-2025 
 ******************************************
 %nprocshared=64
 Will use up to   64 processors via shared memory.
 %mem=230GB
 %chk=M100036283_reduced_sp.chk
 ----------------------------------------------
 #p M062X/DEF2TZVPP scrf=(solvent=water) em=GD3
 ----------------------------------------------
 1/38=1,172=1/1;
 2/12=2,17=6,18=5,40=1/2;
 3/5=44,7=202,11=2,25=1,30=1,70=2201,72=1,74=-55,124=31/1,2,3;
 4//1;
 5/5=2,38=5,53=1/2;
 6/7=2,8=2,9=2,10=2,28=1/1;
 99/5=1,9=1/99;
 Leave Link    1 at Fri Nov  7 17:28:27 2025, MaxMem= 30870077440 cpu:              19.1 elap:               0.3
 (Enter /public/software/gauss/g16/l101.exe)
 -----------------------------------------
 Energy calculation for M100036283_reduced
 -----------------------------------------
 Symbolic Z-matrix:
 Charge = -1 Multiplicity = 2
 C                    -4.59841   3.11662   0.12254 
 C                    -3.19422   2.58741   0.07376 
 C                    -2.05771   3.38466   0.07709 
 C                    -0.91166   2.55843   0.04084 
 C                     0.46665   2.92627   0.04536 
 C                     0.93643   4.21038  -0.02164 
 C                     2.3261    4.61247  -0.00042 
 C                     2.641     5.99276  -0.07905 
 C                     3.94925   6.44512  -0.06418 
 C                     5.01005   5.52146   0.03065 
 C                     6.3595    5.97416   0.04763 
 N                     7.4676    6.34582   0.06157 
 C                     4.72146   4.14178   0.10884 
 C                     3.41043   3.70148   0.09369 
 N                    -1.34579   1.2408    0.0202 
 C                    -2.73587   1.22544   0.0331 
 C                    -3.44665  -0.00005   0.0241 
 C                    -4.94213  -0.00006   0.01989 
 C                    -5.65337  -0.00015  -1.18989 
 C                    -7.05015  -0.00015  -1.19706 
 C                    -7.75757  -0.00007   0.00747 
 C                    -7.06069   0.00002   1.21817 
 C                    -5.66411   0.00002   1.22329 
 C                    -2.73583  -1.22551   0.033 
 C                    -3.19415  -2.5875    0.07348 
 C                    -4.59832  -3.11675   0.1222 
 C                    -2.05762  -3.38472   0.07665 
 C                    -0.91158  -2.55845   0.04062 
 C                     0.46673  -2.92626   0.04525 
 C                     0.93655  -4.21035  -0.02192 
 C                     2.32622  -4.61242  -0.00054 
 C                     2.64116  -5.99269  -0.07926 
 C                     3.94942  -6.44502  -0.06423 
 C                     5.01019  -5.52135   0.03084 
 C                     6.35964  -5.97402   0.04798 
 N                     7.46775  -6.34568   0.06224 
 C                     4.72156  -4.14168   0.10914 
 C                     3.41052  -3.70141   0.09381 
 N                    -1.34575  -1.24083   0.02018 
 B                    -0.46799   0.00001  -0.22685 
 F                     0.63932   0.00001   0.65618 
 F                     0.03634   0.00004  -1.54693 
 H                    -5.13833   2.78572   1.01578 
 H                    -4.5771    4.21042   0.13128 
 H                    -5.19355   2.80035  -0.74023 
 H                    -2.04777   4.46601   0.12293 
 H                     1.17408   2.10769   0.12103 
 H                     0.2215    5.02701  -0.09996 
 H                     1.83037   6.71203  -0.15242 
 H                     4.16429   7.5069   -0.12497 
 H                     5.53598   3.42846   0.18137 
 H                     3.21967   2.63555   0.15485 
 H                    -5.10669  -0.00021  -2.1285 
 H                    -7.58457  -0.00021  -2.14271 
 H                    -8.8436   -0.00006   0.00269 
 H                    -7.60345   0.00008   2.15905 
 H                    -5.12569   0.00008   2.16663 
 H                    -5.13847  -2.78544   1.01514 
 H                    -5.19327  -2.80092  -0.74088 
 H                    -4.57697  -4.21054   0.13144 
 H                    -2.04765  -4.46608   0.12231 
 H                     1.17413  -2.10768   0.12115 
 H                     0.22164  -5.02698  -0.10048 
 H                     1.83056  -6.71197  -0.15284 
 H                     4.16449  -7.50679  -0.12509 
 H                     5.53606  -3.42836   0.18185 
 H                     3.21974  -2.63549   0.15504 
 
 ITRead=  0  0  0  0  0  0  0  0  0  0  0  0  0  0  0  0  0  0  0  0
 ITRead=  0  0  0  0  0  0  0  0  0  0  0  0  0  0  0  0  0  0  0  0
 ITRead=  0  0  0  0  0  0  0  0  0  0  0  0  0  0  0  0  0  0  0  0
 ITRead=  0  0  0  0  0  0  0
 MicOpt= -1 -1 -1 -1 -1 -1 -1 -1 -1 -1 -1 -1 -1 -1 -1 -1 -1 -1 -1 -1
 MicOpt= -1 -1 -1 -1 -1 -1 -1 -1 -1 -1 -1 -1 -1 -1 -1 -1 -1 -1 -1 -1
 MicOpt= -1 -1 -1 -1 -1 -1 -1 -1 -1 -1 -1 -1 -1 -1 -1 -1 -1 -1 -1 -1
 MicOpt= -1 -1 -1 -1 -1 -1 -1
 NAtoms=     67 NQM=       67 NQMF=       0 NMMI=      0 NMMIF=      0
                NMic=       0 NMicF=      0.
                    Isotopes and Nuclear Properties:
 (Nuclear quadrupole moments (NQMom) in fm**2, nuclear magnetic moments (NMagM)
  in nuclear magnetons)

  Atom         1           2           3           4           5           6           7           8           9          10
 IAtWgt=          12          12          12          12          12          12          12          12          12          12
 AtmWgt=  12.0000000  12.0000000  12.0000000  12.0000000  12.0000000  12.0000000  12.0000000  12.0000000  12.0000000  12.0000000
 NucSpn=           0           0           0           0           0           0           0           0           0           0
 AtZEff=  -0.0000000  -0.0000000  -0.0000000  -0.0000000  -0.0000000  -0.0000000  -0.0000000  -0.0000000  -0.0000000  -0.0000000
 NQMom=    0.0000000   0.0000000   0.0000000   0.0000000   0.0000000   0.0000000   0.0000000   0.0000000   0.0000000   0.0000000
 NMagM=    0.0000000   0.0000000   0.0000000   0.0000000   0.0000000   0.0000000   0.0000000   0.0000000   0.0000000   0.0000000
 AtZNuc=   6.0000000   6.0000000   6.0000000   6.0000000   6.0000000   6.0000000   6.0000000   6.0000000   6.0000000   6.0000000

  Atom        11          12          13          14          15          16          17          18          19          20
 IAtWgt=          12          14          12          12          14          12          12          12          12          12
 AtmWgt=  12.0000000  14.0030740  12.0000000  12.0000000  14.0030740  12.0000000  12.0000000  12.0000000  12.0000000  12.0000000
 NucSpn=           0           2           0           0           2           0           0           0           0           0
 AtZEff=  -0.0000000  -0.0000000  -0.0000000  -0.0000000  -0.0000000  -0.0000000  -0.0000000  -0.0000000  -0.0000000  -0.0000000
 NQMom=    0.0000000   2.0440000   0.0000000   0.0000000   2.0440000   0.0000000   0.0000000   0.0000000   0.0000000   0.0000000
 NMagM=    0.0000000   0.4037610   0.0000000   0.0000000   0.4037610   0.0000000   0.0000000   0.0000000   0.0000000   0.0000000
 AtZNuc=   6.0000000   7.0000000   6.0000000   6.0000000   7.0000000   6.0000000   6.0000000   6.0000000   6.0000000   6.0000000

  Atom        21          22          23          24          25          26          27          28          29          30
 IAtWgt=          12          12          12          12          12          12          12          12          12          12
 AtmWgt=  12.0000000  12.0000000  12.0000000  12.0000000  12.0000000  12.0000000  12.0000000  12.0000000  12.0000000  12.0000000
 NucSpn=           0           0           0           0           0           0           0           0           0           0
 AtZEff=  -0.0000000  -0.0000000  -0.0000000  -0.0000000  -0.0000000  -0.0000000  -0.0000000  -0.0000000  -0.0000000  -0.0000000
 NQMom=    0.0000000   0.0000000   0.0000000   0.0000000   0.0000000   0.0000000   0.0000000   0.0000000   0.0000000   0.0000000
 NMagM=    0.0000000   0.0000000   0.0000000   0.0000000   0.0000000   0.0000000   0.0000000   0.0000000   0.0000000   0.0000000
 AtZNuc=   6.0000000   6.0000000   6.0000000   6.0000000   6.0000000   6.0000000   6.0000000   6.0000000   6.0000000   6.0000000

  Atom        31          32          33          34          35          36          37          38          39          40
 IAtWgt=          12          12          12          12          12          14          12          12          14          11
 AtmWgt=  12.0000000  12.0000000  12.0000000  12.0000000  12.0000000  14.0030740  12.0000000  12.0000000  14.0030740  11.0093053
 NucSpn=           0           0           0           0           0           2           0           0           2           3
 AtZEff=  -0.0000000  -0.0000000  -0.0000000  -0.0000000  -0.0000000  -0.0000000  -0.0000000  -0.0000000  -0.0000000  -0.0000000
 NQMom=    0.0000000   0.0000000   0.0000000   0.0000000   0.0000000   2.0440000   0.0000000   0.0000000   2.0440000   4.0590000
 NMagM=    0.0000000   0.0000000   0.0000000   0.0000000   0.0000000   0.4037610   0.0000000   0.0000000   0.4037610   2.6886370
 AtZNuc=   6.0000000   6.0000000   6.0000000   6.0000000   6.0000000   7.0000000   6.0000000   6.0000000   7.0000000   5.0000000

  Atom        41          42          43          44          45          46          47          48          49          50
 IAtWgt=          19          19           1           1           1           1           1           1           1           1
 AtmWgt=  18.9984033  18.9984033   1.0078250   1.0078250   1.0078250   1.0078250   1.0078250   1.0078250   1.0078250   1.0078250
 NucSpn=           1           1           1           1           1           1           1           1           1           1
 AtZEff=  -0.0000000  -0.0000000  -0.0000000  -0.0000000  -0.0000000  -0.0000000  -0.0000000  -0.0000000  -0.0000000  -0.0000000
 NQMom=    0.0000000   0.0000000   0.0000000   0.0000000   0.0000000   0.0000000   0.0000000   0.0000000   0.0000000   0.0000000
 NMagM=    2.6288670   2.6288670   2.7928460   2.7928460   2.7928460   2.7928460   2.7928460   2.7928460   2.7928460   2.7928460
 AtZNuc=   9.0000000   9.0000000   1.0000000   1.0000000   1.0000000   1.0000000   1.0000000   1.0000000   1.0000000   1.0000000

  Atom        51          52          53          54          55          56          57          58          59          60
 IAtWgt=           1           1           1           1           1           1           1           1           1           1
 AtmWgt=   1.0078250   1.0078250   1.0078250   1.0078250   1.0078250   1.0078250   1.0078250   1.0078250   1.0078250   1.0078250
 NucSpn=           1           1           1           1           1           1           1           1           1           1
 AtZEff=  -0.0000000  -0.0000000  -0.0000000  -0.0000000  -0.0000000  -0.0000000  -0.0000000  -0.0000000  -0.0000000  -0.0000000
 NQMom=    0.0000000   0.0000000   0.0000000   0.0000000   0.0000000   0.0000000   0.0000000   0.0000000   0.0000000   0.0000000
 NMagM=    2.7928460   2.7928460   2.7928460   2.7928460   2.7928460   2.7928460   2.7928460   2.7928460   2.7928460   2.7928460
 AtZNuc=   1.0000000   1.0000000   1.0000000   1.0000000   1.0000000   1.0000000   1.0000000   1.0000000   1.0000000   1.0000000

  Atom        61          62          63          64          65          66          67
 IAtWgt=           1           1           1           1           1           1           1
 AtmWgt=   1.0078250   1.0078250   1.0078250   1.0078250   1.0078250   1.0078250   1.0078250
 NucSpn=           1           1           1           1           1           1           1
 AtZEff=  -0.0000000  -0.0000000  -0.0000000  -0.0000000  -0.0000000  -0.0000000  -0.0000000
 NQMom=    0.0000000   0.0000000   0.0000000   0.0000000   0.0000000   0.0000000   0.0000000
 NMagM=    2.7928460   2.7928460   2.7928460   2.7928460   2.7928460   2.7928460   2.7928460
 AtZNuc=   1.0000000   1.0000000   1.0000000   1.0000000   1.0000000   1.0000000   1.0000000
 Leave Link  101 at Fri Nov  7 17:28:27 2025, MaxMem= 30870077440 cpu:               3.8 elap:               0.1
 (Enter /public/software/gauss/g16/l202.exe)
 Stoichiometry    C35H25BF2N4(1-,2)
 Framework group  C1[X(C35H25BF2N4)]
 Deg. of freedom   195
 Full point group                 C1      NOp   1
 Largest Abelian subgroup         C1      NOp   1
 Largest concise Abelian subgroup C1      NOp   1
                         Standard orientation:                         
 ---------------------------------------------------------------------
 Center     Atomic      Atomic             Coordinates (Angstroms)
 Number     Number       Type             X           Y           Z
 ---------------------------------------------------------------------
      1          6           0        4.598406    3.116619   -0.122538
      2          6           0        3.194224    2.587408   -0.073760
      3          6           0        2.057710    3.384660   -0.077090
      4          6           0        0.911656    2.558429   -0.040835
      5          6           0       -0.466650    2.926268   -0.045359
      6          6           0       -0.936433    4.210377    0.021643
      7          6           0       -2.326099    4.612474    0.000417
      8          6           0       -2.640996    5.992760    0.079045
      9          6           0       -3.949251    6.445116    0.064182
     10          6           0       -5.010050    5.521461   -0.030645
     11          6           0       -6.359497    5.974157   -0.047630
     12          7           0       -7.467603    6.345822   -0.061569
     13          6           0       -4.721463    4.141777   -0.108844
     14          6           0       -3.410431    3.701481   -0.093687
     15          7           0        1.345792    1.240804   -0.020202
     16          6           0        2.735870    1.225442   -0.033101
     17          6           0        3.446651   -0.000048   -0.024102
     18          6           0        4.942131   -0.000061   -0.019888
     19          6           0        5.653369   -0.000149    1.189889
     20          6           0        7.050150   -0.000147    1.197062
     21          6           0        7.757565   -0.000065   -0.007474
     22          6           0        7.060693    0.000015   -1.218168
     23          6           0        5.664114    0.000019   -1.223290
     24          6           0        2.735832   -1.225509   -0.033004
     25          6           0        3.194152   -2.587499   -0.073481
     26          6           0        4.598319   -3.116748   -0.122197
     27          6           0        2.057617   -3.384719   -0.076645
     28          6           0        0.911582   -2.558446   -0.040621
     29          6           0       -0.466731   -2.926258   -0.045252
     30          6           0       -0.936553   -4.210346    0.021916
     31          6           0       -2.326223   -4.612418    0.000537
     32          6           0       -2.641160   -5.992690    0.079260
     33          6           0       -3.949421   -6.445022    0.064234
     34          6           0       -5.010189   -5.521355   -0.030843
     35          6           0       -6.359643   -5.974023   -0.047982
     36          7           0       -7.467746   -6.345683   -0.062243
     37          6           0       -4.721561   -4.141685   -0.109135
     38          6           0       -3.410523   -3.701413   -0.093813
     39          7           0        1.345749   -1.240832   -0.020175
     40          5           0        0.467987    0.000005    0.226854
     41          9           0       -0.639318    0.000009   -0.656180
     42          9           0       -0.036335    0.000043    1.546926
     43          1           0        5.138327    2.785719   -1.015783
     44          1           0        4.577096    4.210419   -0.131280
     45          1           0        5.193546    2.800352    0.740230
     46          1           0        2.047772    4.466013   -0.122927
     47          1           0       -1.174075    2.107694   -0.121026
     48          1           0       -0.221497    5.027011    0.099959
     49          1           0       -1.830368    6.712034    0.152422
     50          1           0       -4.164289    7.506897    0.124967
     51          1           0       -5.535984    3.428462   -0.181373
     52          1           0       -3.219672    2.635548   -0.154854
     53          1           0        5.106687   -0.000210    2.128503
     54          1           0        7.584571   -0.000211    2.142707
     55          1           0        8.843604   -0.000063   -0.002693
     56          1           0        7.603445    0.000076   -2.159052
     57          1           0        5.125689    0.000080   -2.166627
     58          1           0        5.138467   -2.785442   -1.015145
     59          1           0        5.193265   -2.800917    0.740875
     60          1           0        4.576969   -4.210543   -0.131443
     61          1           0        2.047650   -4.466079   -0.122305
     62          1           0       -1.174127   -2.107682   -0.121146
     63          1           0       -0.221644   -5.026981    0.100475
     64          1           0       -1.830558   -6.711972    0.152841
     65          1           0       -4.164490   -7.506793    0.125092
     66          1           0       -5.536057   -3.428360   -0.181850
     67          1           0       -3.219738   -2.635487   -0.155038
 ---------------------------------------------------------------------
 Rotational constants (GHZ):           0.0638166           0.0528561           0.0294087
 Leave Link  202 at Fri Nov  7 17:28:27 2025, MaxMem= 30870077440 cpu:               0.2 elap:               0.0
 (Enter /public/software/gauss/g16/l301.exe)
 Standard basis: def2TZVPP (5D, 7F)
 Ernie: Thresh=  0.10000D-02 Tol=  0.10000D-05 Strict=F.
 There are  1887 symmetry adapted cartesian basis functions of A   symmetry.
 There are  1652 symmetry adapted basis functions of A   symmetry.
  1652 basis functions,  2567 primitive gaussians,  1887 cartesian basis functions
   144 alpha electrons      143 beta electrons
       nuclear repulsion energy      4220.3515110252 Hartrees.
 IExCor= 4336 DFT=T Ex+Corr=M062X ExCW=0 ScaHFX=  0.540000
 ScaDFX=  1.000000  1.000000  1.000000  1.000000 ScalE2=  1.000000  1.000000
 IRadAn=      5 IRanWt=     -1 IRanGd=            0 ICorTp=0 IEmpDi=131
 NAtoms=   67 NActive=   67 NUniq=   67 SFac= 1.00D+00 NAtFMM=   60 NAOKFM=T Big=T
 Integral buffers will be    131072 words long.
 Raffenetti 2 integral format.
 Two-electron integral symmetry is turned on.
 R6Disp:  Grimme-D3 Dispersion energy=       -0.0052595414 Hartrees.
 Nuclear repulsion after empirical dispersion term =     4220.3462514838 Hartrees.
 ------------------------------------------------------------------------------
 Polarizable Continuum Model (PCM)
 =================================
 Model                : PCM.
 Atomic radii         : UFF (Universal Force Field).
 Polarization charges : Total charges.
 Charge compensation  : None.
 Solution method      : On-the-fly selection.
 Cavity type          : Scaled VdW (van der Waals Surface) (Alpha=1.100).
 Cavity algorithm     : GePol (No added spheres)
                        Default sphere list used, NSphG=   67.
                        Lebedev-Laikov grids with approx.  5.0 points / Ang**2.
                        Smoothing algorithm: York/Karplus (Gamma=1.0000).
                        Polarization charges: spherical gaussians, with
                                              point-specific exponents (IZeta= 3).
                        Self-potential: point-specific (ISelfS= 7).
                        Self-field    : sphere-specific E.n sum rule (ISelfD= 2).
 Solvent              : Water, Eps=  78.355300 Eps(inf)=   1.777849
 ------------------------------------------------------------------------------
 GePol: Number of generator spheres                  =      67
 GePol: Total number of spheres                      =      67
 GePol: Number of exposed spheres                    =      67 (100.00%)
 GePol: Number of points                             =    5123
 GePol: Average weight of points                     =       0.13
 GePol: Minimum weight of points                     =   0.18D-10
 GePol: Maximum weight of points                     =    0.20577
 GePol: Number of points with low weight             =     335
 GePol: Fraction of low-weight points (<1% of avg)   =       6.54%
 GePol: Cavity surface area                          =    652.655 Ang**2
 GePol: Cavity volume                                =    746.702 Ang**3
 Leave Link  301 at Fri Nov  7 17:28:27 2025, MaxMem= 30870077440 cpu:               3.3 elap:               0.1
 (Enter /public/software/gauss/g16/l302.exe)
 NPDir=0 NMtPBC=     1 NCelOv=     1 NCel=       1 NClECP=     1 NCelD=      1
         NCelK=      1 NCelE2=     1 NClLst=     1 CellRange=     0.0.
 One-electron integrals computed using PRISM.
 One-electron integral symmetry used in STVInt
   1 Symmetry operations used in ECPInt.
 ECPInt:  NShTT=  187578 NPrTT=  542319 LenC2=  123043 LenP2D=  239723.
 LDataN:  DoStor=T MaxTD1= 6 Len=  172
 NBasis=  1652 RedAO= T EigKep=  3.85D-06  NBF=  1652
 NBsUse=  1652 1.00D-06 EigRej= -1.00D+00 NBFU=  1652
 Precomputing XC quadrature grid using
 IXCGrd= 4 IRadAn=           5 IRanWt=          -1 IRanGd=           0 AccXCQ= 0.00D+00.
 Generated NRdTot=       0 NPtTot=           0 NUsed=           0 NTot=          32
 NSgBfM=  1720  1720  1720  1720  1720 MxSgAt=    67 MxSgA2=    67.
 Leave Link  302 at Fri Nov  7 17:28:34 2025, MaxMem= 30870077440 cpu:             449.9 elap:               7.1
 (Enter /public/software/gauss/g16/l303.exe)
 DipDrv:  MaxL=1.
 Leave Link  303 at Fri Nov  7 17:28:35 2025, MaxMem= 30870077440 cpu:              22.8 elap:               0.4
 (Enter /public/software/gauss/g16/l401.exe)
 ExpMin= 6.06D-02 ExpMax= 3.55D+04 ExpMxC= 1.21D+03 IAcc=3 IRadAn=         5 AccDes= 0.00D+00
 Harris functional with IExCor= 1009 and IRadAn=       5 diagonalized for initial guess.
 HarFok:  IExCor= 1009 AccDes= 0.00D+00 IRadAn=         5 IDoV= 1 UseB2=F ITyADJ=14
 ICtDFT=  3500011 ScaDFX=  1.000000  1.000000  1.000000  1.000000
 FoFCou: FMM=F IPFlag=           0 FMFlag=      100000 FMFlg1=        2001
         NFxFlg=           0 DoJE=T BraDBF=F KetDBF=T FulRan=T
         wScrn=  0.000000 ICntrl=       500 IOpCl=  0 I1Cent=   200000004 NGrid=           0
         NMat0=    1 NMatS0=      1 NMatT0=    0 NMatD0=    1 NMtDS0=    0 NMtDT0=    0
 Petite list used in FoFCou.
 Harris En= -1791.73771000529    
 JPrj=0 DoOrth=F DoCkMO=F.
 Initial guess <Sx>= 0.0000 <Sy>= 0.0000 <Sz>= 0.5000 <S**2>= 0.7500 S= 0.5000
 Leave Link  401 at Fri Nov  7 17:28:44 2025, MaxMem= 30870077440 cpu:             567.0 elap:               8.9
 (Enter /public/software/gauss/g16/l502.exe)
 Integral symmetry usage will be decided dynamically.
 UHF open shell SCF:
 Using DIIS extrapolation, IDIIS=  1040.
 NGot= 30870077440 LenX= 30862819299 LenY= 30859256643
 Requested convergence on RMS density matrix=1.00D-08 within 128 cycles.
 Requested convergence on MAX density matrix=1.00D-06.
 Requested convergence on             energy=1.00D-06.
 No special actions if energy rises.
 Fock matrices will be formed incrementally for  20 cycles.

 Cycle   1  Pass 1  IDiag  1:
 FoFJK:  IHMeth= 1 ICntrl=       0 DoSepK=F KAlg= 0 I1Cent=           0 FoldK=F
 IRaf= 620000000 NMat=       1 IRICut=       1 DoRegI=T DoRafI=F ISym2E= 0 IDoP0=0 IntGTp=1.
 FoFCou: FMM=T IPFlag=           0 FMFlag=      100000 FMFlg1=        2001
         NFxFlg=           0 DoJE=F BraDBF=F KetDBF=F FulRan=T
         wScrn=  0.000000 ICntrl=         0 IOpCl=  1 I1Cent=           0 NGrid=           0
         NMat0=    1 NMatS0=      1 NMatT0=    0 NMatD0=    1 NMtDS0=    0 NMtDT0=    0
 Symmetry not used in FoFCou.
 FMM levels:  10  Number of levels for PrismC:   9
 Inv3:  Mode=1 IEnd=    78735387.
 Iteration    1 A*A^-1 deviation from unit magnitude is 1.42D-14 for    867.
 Iteration    1 A*A^-1 deviation from orthogonality  is 4.22D-15 for   4569    714.
 Iteration    1 A^-1*A deviation from unit magnitude is 1.40D-14 for    867.
 Iteration    1 A^-1*A deviation from orthogonality  is 6.08D-15 for   3664   1187.
 E= -1791.69021325546    
 DIIS: error= 1.85D-02 at cycle   1 NSaved=   1.
 NSaved= 1 IEnMin= 1 EnMin= -1791.69021325546     IErMin= 1 ErrMin= 1.85D-02
 ErrMax= 1.85D-02  0.00D+00 EMaxC= 1.00D-01 BMatC= 4.57D+00 BMatP= 4.57D+00
 IDIUse=3 WtCom= 8.15D-01 WtEn= 1.85D-01
 Coeff-Com:  0.100D+01
 Coeff-En:   0.100D+01
 Coeff:      0.100D+01
 Gap=     0.111 Goal=   None    Shift=    0.000
 Gap=     0.128 Goal=   None    Shift=    0.000
 GapD=    0.111 DampG=1.000 DampE=0.500 DampFc=0.5000 IDamp=-1.
 Damping current iteration by 5.00D-01
 RMSDP=1.46D-03 MaxDP=1.10D-01              OVMax= 1.65D-01

 Cycle   2  Pass 1  IDiag  1:
 RMSU=  7.22D-04    CP:  9.74D-01
 E= -1792.17095117195     Delta-E=       -0.480737916482 Rises=F Damp=T
 DIIS: error= 5.01D-03 at cycle   2 NSaved=   2.
 NSaved= 2 IEnMin= 2 EnMin= -1792.17095117195     IErMin= 2 ErrMin= 5.01D-03
 ErrMax= 5.01D-03  0.00D+00 EMaxC= 1.00D-01 BMatC= 4.46D-01 BMatP= 4.57D+00
 IDIUse=3 WtCom= 9.50D-01 WtEn= 5.01D-02
 Coeff-Com: -0.188D+00 0.119D+01
 Coeff-En:   0.000D+00 0.100D+01
 Coeff:     -0.178D+00 0.118D+01
 Gap=     0.107 Goal=   None    Shift=    0.000
 Gap=     0.135 Goal=   None    Shift=    0.000
 RMSDP=6.67D-04 MaxDP=5.17D-02 DE=-4.81D-01 OVMax= 1.10D-01

 Cycle   3  Pass 1  IDiag  1:
 RMSU=  6.17D-04    CP:  9.51D-01  1.33D+00
 E= -1792.57049681966     Delta-E=       -0.399545647716 Rises=F Damp=F
 DIIS: error= 5.63D-03 at cycle   3 NSaved=   3.
 NSaved= 3 IEnMin= 3 EnMin= -1792.57049681966     IErMin= 2 ErrMin= 5.01D-03
 ErrMax= 5.63D-03  0.00D+00 EMaxC= 1.00D-01 BMatC= 2.08D-01 BMatP= 4.46D-01
 IDIUse=3 WtCom= 9.44D-01 WtEn= 5.63D-02
 Coeff-Com: -0.148D+00 0.538D+00 0.610D+00
 Coeff-En:   0.000D+00 0.000D+00 0.100D+01
 Coeff:     -0.139D+00 0.508D+00 0.632D+00
 Gap=     0.112 Goal=   None    Shift=    0.000
 Gap=     0.134 Goal=   None    Shift=    0.000
 RMSDP=1.81D-04 MaxDP=2.36D-02 DE=-4.00D-01 OVMax= 5.59D-02

 Cycle   4  Pass 1  IDiag  1:
 RMSU=  1.67D-04    CP:  9.52D-01  1.39D+00  9.17D-01
 E= -1792.60481155588     Delta-E=       -0.034314736217 Rises=F Damp=F
 DIIS: error= 2.82D-03 at cycle   4 NSaved=   4.
 NSaved= 4 IEnMin= 4 EnMin= -1792.60481155588     IErMin= 4 ErrMin= 2.82D-03
 ErrMax= 2.82D-03  0.00D+00 EMaxC= 1.00D-01 BMatC= 5.18D-02 BMatP= 2.08D-01
 IDIUse=3 WtCom= 9.72D-01 WtEn= 2.82D-02
 Coeff-Com: -0.509D-01 0.134D+00 0.367D+00 0.550D+00
 Coeff-En:   0.000D+00 0.000D+00 0.205D+00 0.795D+00
 Coeff:     -0.495D-01 0.130D+00 0.363D+00 0.557D+00
 Gap=     0.112 Goal=   None    Shift=    0.000
 Gap=     0.137 Goal=   None    Shift=    0.000
 RMSDP=7.61D-05 MaxDP=1.01D-02 DE=-3.43D-02 OVMax= 2.19D-02

 Cycle   5  Pass 1  IDiag  1:
 RMSU=  6.16D-05    CP:  9.51D-01  1.37D+00  9.31D-01  7.47D-01
 E= -1792.61611265334     Delta-E=       -0.011301097458 Rises=F Damp=F
 DIIS: error= 6.11D-04 at cycle   5 NSaved=   5.
 NSaved= 5 IEnMin= 5 EnMin= -1792.61611265334     IErMin= 5 ErrMin= 6.11D-04
 ErrMax= 6.11D-04  0.00D+00 EMaxC= 1.00D-01 BMatC= 2.34D-03 BMatP= 5.18D-02
 IDIUse=3 WtCom= 9.94D-01 WtEn= 6.11D-03
 Coeff-Com: -0.154D-01 0.319D-01 0.141D+00 0.272D+00 0.571D+00
 Coeff-En:   0.000D+00 0.000D+00 0.000D+00 0.000D+00 0.100D+01
 Coeff:     -0.153D-01 0.317D-01 0.140D+00 0.270D+00 0.573D+00
 Gap=     0.113 Goal=   None    Shift=    0.000
 Gap=     0.138 Goal=   None    Shift=    0.000
 RMSDP=2.30D-05 MaxDP=2.56D-03 DE=-1.13D-02 OVMax= 7.88D-03

 Cycle   6  Pass 1  IDiag  1:
 RMSU=  2.16D-05    CP:  9.51D-01  1.38D+00  9.31D-01  7.56D-01  9.04D-01
 E= -1792.61671021414     Delta-E=       -0.000597560804 Rises=F Damp=F
 DIIS: error= 2.24D-04 at cycle   6 NSaved=   6.
 NSaved= 6 IEnMin= 6 EnMin= -1792.61671021414     IErMin= 6 ErrMin= 2.24D-04
 ErrMax= 2.24D-04  0.00D+00 EMaxC= 1.00D-01 BMatC= 2.73D-04 BMatP= 2.34D-03
 IDIUse=3 WtCom= 9.98D-01 WtEn= 2.24D-03
 Coeff-Com: -0.917D-03-0.627D-03 0.197D-01 0.523D-01 0.250D+00 0.680D+00
 Coeff-En:   0.000D+00 0.000D+00 0.000D+00 0.000D+00 0.000D+00 0.100D+01
 Coeff:     -0.915D-03-0.625D-03 0.197D-01 0.522D-01 0.249D+00 0.681D+00
 Gap=     0.115 Goal=   None    Shift=    0.000
 Gap=     0.139 Goal=   None    Shift=    0.000
 RMSDP=1.25D-05 MaxDP=1.58D-03 DE=-5.98D-04 OVMax= 9.31D-03

 Cycle   7  Pass 1  IDiag  1:
 RMSU=  9.50D-06    CP:  9.51D-01  1.38D+00  9.31D-01  7.73D-01  1.01D+00
                    CP:  1.18D+00
 E= -1792.61686706937     Delta-E=       -0.000156855231 Rises=F Damp=F
 DIIS: error= 1.49D-04 at cycle   7 NSaved=   7.
 NSaved= 7 IEnMin= 7 EnMin= -1792.61686706937     IErMin= 7 ErrMin= 1.49D-04
 ErrMax= 1.49D-04  0.00D+00 EMaxC= 1.00D-01 BMatC= 7.30D-05 BMatP= 2.73D-04
 IDIUse=3 WtCom= 9.99D-01 WtEn= 1.49D-03
 Coeff-Com:  0.436D-02-0.979D-02-0.369D-01-0.676D-01-0.952D-01 0.232D+00
 Coeff-Com:  0.973D+00
 Coeff-En:   0.000D+00 0.000D+00 0.000D+00 0.000D+00 0.000D+00 0.000D+00
 Coeff-En:   0.100D+01
 Coeff:      0.435D-02-0.977D-02-0.369D-01-0.674D-01-0.950D-01 0.232D+00
 Coeff:      0.973D+00
 Gap=     0.117 Goal=   None    Shift=    0.000
 Gap=     0.141 Goal=   None    Shift=    0.000
 RMSDP=1.29D-05 MaxDP=2.00D-03 DE=-1.57D-04 OVMax= 9.30D-03

 Cycle   8  Pass 1  IDiag  1:
 RMSU=  5.17D-06    CP:  9.51D-01  1.38D+00  9.32D-01  7.84D-01  1.11D+00
                    CP:  1.50D+00  1.71D+00
 E= -1792.61696380100     Delta-E=       -0.000096731625 Rises=F Damp=F
 DIIS: error= 7.28D-05 at cycle   8 NSaved=   8.
 NSaved= 8 IEnMin= 8 EnMin= -1792.61696380100     IErMin= 8 ErrMin= 7.28D-05
 ErrMax= 7.28D-05  0.00D+00 EMaxC= 1.00D-01 BMatC= 2.35D-05 BMatP= 7.30D-05
 IDIUse=1 WtCom= 1.00D+00 WtEn= 0.00D+00
 Coeff-Com:  0.201D-02-0.366D-02-0.208D-01-0.443D-01-0.128D+00-0.150D+00
 Coeff-Com:  0.386D+00 0.959D+00
 Coeff:      0.201D-02-0.366D-02-0.208D-01-0.443D-01-0.128D+00-0.150D+00
 Coeff:      0.386D+00 0.959D+00
 Gap=     0.118 Goal=   None    Shift=    0.000
 Gap=     0.142 Goal=   None    Shift=    0.000
 RMSDP=8.92D-06 MaxDP=1.13D-03 DE=-9.67D-05 OVMax= 6.19D-03

 Cycle   9  Pass 1  IDiag  1:
 RMSU=  3.15D-06    CP:  9.51D-01  1.38D+00  9.33D-01  7.93D-01  1.17D+00
                    CP:  1.72D+00  2.25D+00  1.57D+00
 E= -1792.61699704416     Delta-E=       -0.000033243163 Rises=F Damp=F
 DIIS: error= 3.49D-05 at cycle   9 NSaved=   9.
 NSaved= 9 IEnMin= 9 EnMin= -1792.61699704416     IErMin= 9 ErrMin= 3.49D-05
 ErrMax= 3.49D-05  0.00D+00 EMaxC= 1.00D-01 BMatC= 4.26D-06 BMatP= 2.35D-05
 IDIUse=1 WtCom= 1.00D+00 WtEn= 0.00D+00
 Coeff-Com: -0.682D-03 0.178D-02 0.450D-02 0.590D-02-0.122D-01-0.104D+00
 Coeff-Com: -0.153D+00 0.290D+00 0.968D+00
 Coeff:     -0.682D-03 0.178D-02 0.450D-02 0.590D-02-0.122D-01-0.104D+00
 Coeff:     -0.153D+00 0.290D+00 0.968D+00
 Gap=     0.119 Goal=   None    Shift=    0.000
 Gap=     0.142 Goal=   None    Shift=    0.000
 RMSDP=3.94D-06 MaxDP=4.89D-04 DE=-3.32D-05 OVMax= 2.12D-03

 Cycle  10  Pass 1  IDiag  1:
 RMSU=  1.59D-06    CP:  9.51D-01  1.38D+00  9.33D-01  7.95D-01  1.18D+00
                    CP:  1.79D+00  2.47D+00  1.97D+00  1.25D+00
 E= -1792.61700222990     Delta-E=       -0.000005185736 Rises=F Damp=F
 DIIS: error= 1.25D-05 at cycle  10 NSaved=  10.
 NSaved=10 IEnMin=10 EnMin= -1792.61700222990     IErMin=10 ErrMin= 1.25D-05
 ErrMax= 1.25D-05  0.00D+00 EMaxC= 1.00D-01 BMatC= 8.10D-07 BMatP= 4.26D-06
 IDIUse=1 WtCom= 1.00D+00 WtEn= 0.00D+00
 Coeff-Com: -0.550D-03 0.122D-02 0.478D-02 0.886D-02 0.142D-01-0.137D-01
 Coeff-Com: -0.112D+00-0.236D-01 0.350D+00 0.772D+00
 Coeff:     -0.550D-03 0.122D-02 0.478D-02 0.886D-02 0.142D-01-0.137D-01
 Coeff:     -0.112D+00-0.236D-01 0.350D+00 0.772D+00
 Gap=     0.119 Goal=   None    Shift=    0.000
 Gap=     0.142 Goal=   None    Shift=    0.000
 RMSDP=9.08D-07 MaxDP=1.11D-04 DE=-5.19D-06 OVMax= 5.04D-04

 Cycle  11  Pass 1  IDiag  1:
 RMSU=  6.10D-07    CP:  9.51D-01  1.38D+00  9.33D-01  7.95D-01  1.18D+00
                    CP:  1.79D+00  2.51D+00  2.03D+00  1.36D+00  1.15D+00
 E= -1792.61700282544     Delta-E=       -0.000000595543 Rises=F Damp=F
 DIIS: error= 9.29D-06 at cycle  11 NSaved=  11.
 NSaved=11 IEnMin=11 EnMin= -1792.61700282544     IErMin=11 ErrMin= 9.29D-06
 ErrMax= 9.29D-06  0.00D+00 EMaxC= 1.00D-01 BMatC= 2.42D-07 BMatP= 8.10D-07
 IDIUse=1 WtCom= 1.00D+00 WtEn= 0.00D+00
 Coeff-Com: -0.112D-03 0.208D-03 0.129D-02 0.274D-02 0.770D-02 0.109D-01
 Coeff-Com: -0.271D-01-0.502D-01-0.178D-01 0.334D+00 0.738D+00
 Coeff:     -0.112D-03 0.208D-03 0.129D-02 0.274D-02 0.770D-02 0.109D-01
 Coeff:     -0.271D-01-0.502D-01-0.178D-01 0.334D+00 0.738D+00
 Gap=     0.119 Goal=   None    Shift=    0.000
 Gap=     0.142 Goal=   None    Shift=    0.000
 RMSDP=4.61D-07 MaxDP=4.69D-05 DE=-5.96D-07 OVMax= 3.23D-04

 Cycle  12  Pass 1  IDiag  1:
 RMSU=  3.33D-07    CP:  9.51D-01  1.38D+00  9.33D-01  7.94D-01  1.18D+00
                    CP:  1.80D+00  2.51D+00  2.05D+00  1.40D+00  1.29D+00
                    CP:  1.22D+00
 E= -1792.61700304783     Delta-E=       -0.000000222393 Rises=F Damp=F
 DIIS: error= 5.75D-06 at cycle  12 NSaved=  12.
 NSaved=12 IEnMin=12 EnMin= -1792.61700304783     IErMin=12 ErrMin= 5.75D-06
 ErrMax= 5.75D-06  0.00D+00 EMaxC= 1.00D-01 BMatC= 8.76D-08 BMatP= 2.42D-07
 IDIUse=1 WtCom= 1.00D+00 WtEn= 0.00D+00
 Coeff-Com:  0.142D-03-0.326D-03-0.109D-02-0.203D-02-0.187D-02 0.921D-02
 Coeff-Com:  0.235D-01-0.262D-02-0.125D+00-0.140D+00 0.321D+00 0.920D+00
 Coeff:      0.142D-03-0.326D-03-0.109D-02-0.203D-02-0.187D-02 0.921D-02
 Coeff:      0.235D-01-0.262D-02-0.125D+00-0.140D+00 0.321D+00 0.920D+00
 Gap=     0.119 Goal=   None    Shift=    0.000
 Gap=     0.142 Goal=   None    Shift=    0.000
 RMSDP=3.83D-07 MaxDP=3.73D-05 DE=-2.22D-07 OVMax= 3.42D-04

 Cycle  13  Pass 1  IDiag  1:
 RMSU=  1.89D-07    CP:  9.51D-01  1.38D+00  9.33D-01  7.94D-01  1.18D+00
                    CP:  1.80D+00  2.51D+00  2.05D+00  1.40D+00  1.39D+00
                    CP:  1.63D+00  1.43D+00
 E= -1792.61700317610     Delta-E=       -0.000000128270 Rises=F Damp=F
 DIIS: error= 3.56D-06 at cycle  13 NSaved=  13.
 NSaved=13 IEnMin=13 EnMin= -1792.61700317610     IErMin=13 ErrMin= 3.56D-06
 ErrMax= 3.56D-06  0.00D+00 EMaxC= 1.00D-01 BMatC= 2.66D-08 BMatP= 8.76D-08
 IDIUse=1 WtCom= 1.00D+00 WtEn= 0.00D+00
 Coeff-Com:  0.836D-04-0.177D-03-0.768D-03-0.160D-02-0.298D-02 0.365D-03
 Coeff-Com:  0.153D-01 0.180D-01-0.423D-01-0.162D+00-0.966D-01 0.314D+00
 Coeff-Com:  0.959D+00
 Coeff:      0.836D-04-0.177D-03-0.768D-03-0.160D-02-0.298D-02 0.365D-03
 Coeff:      0.153D-01 0.180D-01-0.423D-01-0.162D+00-0.966D-01 0.314D+00
 Coeff:      0.959D+00
 Gap=     0.119 Goal=   None    Shift=    0.000
 Gap=     0.142 Goal=   None    Shift=    0.000
 RMSDP=2.75D-07 MaxDP=3.17D-05 DE=-1.28D-07 OVMax= 2.40D-04

 Cycle  14  Pass 1  IDiag  1:
 RMSU=  1.03D-07    CP:  9.51D-01  1.38D+00  9.33D-01  7.94D-01  1.18D+00
                    CP:  1.80D+00  2.51D+00  2.06D+00  1.40D+00  1.44D+00
                    CP:  1.84D+00  1.91D+00  1.59D+00
 E= -1792.61700322962     Delta-E=       -0.000000053524 Rises=F Damp=F
 DIIS: error= 2.33D-06 at cycle  14 NSaved=  14.
 NSaved=14 IEnMin=14 EnMin= -1792.61700322962     IErMin=14 ErrMin= 2.33D-06
 ErrMax= 2.33D-06  0.00D+00 EMaxC= 1.00D-01 BMatC= 9.16D-09 BMatP= 2.66D-08
 IDIUse=1 WtCom= 1.00D+00 WtEn= 0.00D+00
 Coeff-Com: -0.309D-04 0.754D-04 0.169D-03 0.216D-03-0.517D-03-0.436D-02
 Coeff-Com: -0.545D-02 0.100D-01 0.397D-01-0.725D-02-0.173D+00-0.282D+00
 Coeff-Com:  0.401D+00 0.102D+01
 Coeff:     -0.309D-04 0.754D-04 0.169D-03 0.216D-03-0.517D-03-0.436D-02
 Coeff:     -0.545D-02 0.100D-01 0.397D-01-0.725D-02-0.173D+00-0.282D+00
 Coeff:      0.401D+00 0.102D+01
 Gap=     0.119 Goal=   None    Shift=    0.000
 Gap=     0.142 Goal=   None    Shift=    0.000
 RMSDP=2.06D-07 MaxDP=1.64D-05 DE=-5.35D-08 OVMax= 1.72D-04

 Cycle  15  Pass 1  IDiag  1:
 RMSU=  6.12D-08    CP:  9.51D-01  1.38D+00  9.33D-01  7.94D-01  1.18D+00
                    CP:  1.80D+00  2.51D+00  2.06D+00  1.40D+00  1.47D+00
                    CP:  1.96D+00  2.24D+00  2.19D+00  1.71D+00
 E= -1792.61700325119     Delta-E=       -0.000000021560 Rises=F Damp=F
 DIIS: error= 9.78D-07 at cycle  15 NSaved=  15.
 NSaved=15 IEnMin=15 EnMin= -1792.61700325119     IErMin=15 ErrMin= 9.78D-07
 ErrMax= 9.78D-07  0.00D+00 EMaxC= 1.00D-01 BMatC= 1.86D-09 BMatP= 9.16D-09
 IDIUse=1 WtCom= 1.00D+00 WtEn= 0.00D+00
 Coeff-Com: -0.260D-04 0.581D-04 0.217D-03 0.438D-03 0.540D-03-0.115D-02
 Coeff-Com: -0.464D-02-0.265D-02 0.180D-01 0.406D-01 0.104D-02-0.148D+00
 Coeff-Com: -0.185D+00 0.211D+00 0.107D+01
 Coeff:     -0.260D-04 0.581D-04 0.217D-03 0.438D-03 0.540D-03-0.115D-02
 Coeff:     -0.464D-02-0.265D-02 0.180D-01 0.406D-01 0.104D-02-0.148D+00
 Coeff:     -0.185D+00 0.211D+00 0.107D+01
 Gap=     0.119 Goal=   None    Shift=    0.000
 Gap=     0.142 Goal=   None    Shift=    0.000
 RMSDP=1.02D-07 MaxDP=8.88D-06 DE=-2.16D-08 OVMax= 7.97D-05

 Cycle  16  Pass 1  IDiag  1:
 RMSU=  2.92D-08    CP:  9.51D-01  1.38D+00  9.33D-01  7.94D-01  1.18D+00
                    CP:  1.80D+00  2.51D+00  2.06D+00  1.40D+00  1.48D+00
                    CP:  2.00D+00  2.38D+00  2.47D+00  2.21D+00  1.52D+00
 E= -1792.61700325534     Delta-E=       -0.000000004156 Rises=F Damp=F
 DIIS: error= 3.75D-07 at cycle  16 NSaved=  16.
 NSaved=16 IEnMin=16 EnMin= -1792.61700325534     IErMin=16 ErrMin= 3.75D-07
 ErrMax= 3.75D-07  0.00D+00 EMaxC= 1.00D-01 BMatC= 4.62D-10 BMatP= 1.86D-09
 IDIUse=1 WtCom= 1.00D+00 WtEn= 0.00D+00
 Coeff-Com: -0.247D-05 0.435D-05 0.432D-04 0.121D-03 0.308D-03 0.491D-03
 Coeff-Com: -0.389D-03-0.335D-02-0.218D-02 0.164D-01 0.400D-01 0.437D-03
 Coeff-Com: -0.154D+00-0.138D+00 0.409D+00 0.830D+00
 Coeff:     -0.247D-05 0.435D-05 0.432D-04 0.121D-03 0.308D-03 0.491D-03
 Coeff:     -0.389D-03-0.335D-02-0.218D-02 0.164D-01 0.400D-01 0.437D-03
 Coeff:     -0.154D+00-0.138D+00 0.409D+00 0.830D+00
 Gap=     0.119 Goal=   None    Shift=    0.000
 Gap=     0.142 Goal=   None    Shift=    0.000
 RMSDP=3.64D-08 MaxDP=2.87D-06 DE=-4.16D-09 OVMax= 2.99D-05

 Cycle  17  Pass 1  IDiag  1:
 RMSU=  1.19D-08    CP:  9.51D-01  1.38D+00  9.33D-01  7.94D-01  1.18D+00
                    CP:  1.80D+00  2.50D+00  2.06D+00  1.40D+00  1.48D+00
                    CP:  2.02D+00  2.42D+00  2.56D+00  2.34D+00  1.82D+00
                    CP:  1.43D+00
 E= -1792.61700325599     Delta-E=       -0.000000000645 Rises=F Damp=F
 DIIS: error= 1.48D-07 at cycle  17 NSaved=  17.
 NSaved=17 IEnMin=17 EnMin= -1792.61700325599     IErMin=17 ErrMin= 1.48D-07
 ErrMax= 1.48D-07  0.00D+00 EMaxC= 1.00D-01 BMatC= 7.32D-11 BMatP= 4.62D-10
 IDIUse=1 WtCom= 1.00D+00 WtEn= 0.00D+00
 Coeff-Com:  0.448D-05-0.100D-04-0.326D-04-0.547D-04-0.428D-04 0.263D-03
 Coeff-Com:  0.834D-03-0.228D-03-0.373D-02-0.432D-02 0.107D-01 0.279D-01
 Coeff-Com:  0.104D-02-0.766D-01-0.122D+00 0.196D+00 0.970D+00
 Coeff:      0.448D-05-0.100D-04-0.326D-04-0.547D-04-0.428D-04 0.263D-03
 Coeff:      0.834D-03-0.228D-03-0.373D-02-0.432D-02 0.107D-01 0.279D-01
 Coeff:      0.104D-02-0.766D-01-0.122D+00 0.196D+00 0.970D+00
 Gap=     0.119 Goal=   None    Shift=    0.000
 Gap=     0.142 Goal=   None    Shift=    0.000
 RMSDP=1.59D-08 MaxDP=1.53D-06 DE=-6.45D-10 OVMax= 1.30D-05

 Cycle  18  Pass 1  IDiag  1:
 RMSU=  5.97D-09    CP:  9.51D-01  1.38D+00  9.33D-01  7.94D-01  1.18D+00
                    CP:  1.80D+00  2.50D+00  2.06D+00  1.40D+00  1.48D+00
                    CP:  2.02D+00  2.43D+00  2.58D+00  2.39D+00  1.94D+00
                    CP:  1.71D+00  1.44D+00
 E= -1792.61700325635     Delta-E=       -0.000000000359 Rises=F Damp=F
 DIIS: error= 6.87D-08 at cycle  18 NSaved=  18.
 NSaved=18 IEnMin=18 EnMin= -1792.61700325635     IErMin=18 ErrMin= 6.87D-08
 ErrMax= 6.87D-08  0.00D+00 EMaxC= 1.00D-01 BMatC= 1.63D-11 BMatP= 7.32D-11
 IDIUse=1 WtCom= 1.00D+00 WtEn= 0.00D+00
 Coeff-Com:  0.142D-05-0.308D-05-0.151D-04-0.304D-04-0.516D-04-0.115D-04
 Coeff-Com:  0.309D-03 0.436D-03-0.631D-03-0.394D-02-0.236D-02 0.621D-02
 Coeff-Com:  0.233D-01 0.100D-02-0.930D-01-0.865D-01 0.266D+00 0.890D+00
 Coeff:      0.142D-05-0.308D-05-0.151D-04-0.304D-04-0.516D-04-0.115D-04
 Coeff:      0.309D-03 0.436D-03-0.631D-03-0.394D-02-0.236D-02 0.621D-02
 Coeff:      0.233D-01 0.100D-02-0.930D-01-0.865D-01 0.266D+00 0.890D+00
 Gap=     0.119 Goal=   None    Shift=    0.000
 Gap=     0.142 Goal=   None    Shift=    0.000
 RMSDP=6.40D-09 MaxDP=6.88D-07 DE=-3.59D-10 OVMax= 5.42D-06

 Error on total polarization charges =  0.02726
 SCF Done:  E(UM062X) =  -1792.61700326     A.U. after   18 cycles
            NFock= 18  Conv=0.64D-08     -V/T= 2.0055
 <Sx>= 0.0000 <Sy>= 0.0000 <Sz>= 0.5000 <S**2>= 0.8110 S= 0.5301
 <L.S>= 0.000000000000E+00
 KE= 1.782811940292D+03 PE=-1.264184916660D+04 EE= 4.846073971564D+03
 Annihilation of the first spin contaminant:
 S**2 before annihilation     0.8110,   after     0.7527
 Leave Link  502 at Fri Nov  7 17:51:46 2025, MaxMem= 30870077440 cpu:           87412.1 elap:            1382.7
 (Enter /public/software/gauss/g16/l601.exe)
 Copying SCF densities to generalized density rwf, IOpCl= 1 IROHF=0.

 **********************************************************************

            Population analysis using the SCF density.

 **********************************************************************

 Orbital symmetries:
 Alpha Orbitals:
       Occupied  (A) (A) (A) (A) (A) (A) (A) (A) (A) (A) (A) (A)
                 (A) (A) (A) (A) (A) (A) (A) (A) (A) (A) (A) (A)
                 (A) (A) (A) (A) (A) (A) (A) (A) (A) (A) (A) (A)
                 (A) (A) (A) (A) (A) (A) (A) (A) (A) (A) (A) (A)
                 (A) (A) (A) (A) (A) (A) (A) (A) (A) (A) (A) (A)
                 (A) (A) (A) (A) (A) (A) (A) (A) (A) (A) (A) (A)
                 (A) (A) (A) (A) (A) (A) (A) (A) (A) (A) (A) (A)
                 (A) (A) (A) (A) (A) (A) (A) (A) (A) (A) (A) (A)
                 (A) (A) (A) (A) (A) (A) (A) (A) (A) (A) (A) (A)
                 (A) (A) (A) (A) (A) (A) (A) (A) (A) (A) (A) (A)
                 (A) (A) (A) (A) (A) (A) (A) (A) (A) (A) (A) (A)
                 (A) (A) (A) (A) (A) (A) (A) (A) (A) (A) (A) (A)
       Virtual   (A) (A) (A) (A) (A) (A) (A) (A) (A) (A) (A) (A)
                 (A) (A) (A) (A) (A) (A) (A) (A) (A) (A) (A) (A)
                 (A) (A) (A) (A) (A) (A) (A) (A) (A) (A) (A) (A)
                 (A) (A) (A) (A) (A) (A) (A) (A) (A) (A) (A) (A)
                 (A) (A) (A) (A) (A) (A) (A) (A) (A) (A) (A) (A)
                 (A) (A) (A) (A) (A) (A) (A) (A) (A) (A) (A) (A)
                 (A) (A) (A) (A) (A) (A) (A) (A) (A) (A) (A) (A)
                 (A) (A) (A) (A) (A) (A) (A) (A) (A) (A) (A) (A)
                 (A) (A) (A) (A) (A) (A) (A) (A) (A) (A) (A) (A)
                 (A) (A) (A) (A) (A) (A) (A) (A) (A) (A) (A) (A)
                 (A) (A) (A) (A) (A) (A) (A) (A) (A) (A) (A) (A)
                 (A) (A) (A) (A) (A) (A) (A) (A) (A) (A) (A) (A)
                 (A) (A) (A) (A) (A) (A) (A) (A) (A) (A) (A) (A)
                 (A) (A) (A) (A) (A) (A) (A) (A) (A) (A) (A) (A)
                 (A) (A) (A) (A) (A) (A) (A) (A) (A) (A) (A) (A)
                 (A) (A) (A) (A) (A) (A) (A) (A) (A) (A) (A) (A)
                 (A) (A) (A) (A) (A) (A) (A) (A) (A) (A) (A) (A)
                 (A) (A) (A) (A) (A) (A) (A) (A) (A) (A) (A) (A)
                 (A) (A) (A) (A) (A) (A) (A) (A) (A) (A) (A) (A)
                 (A) (A) (A) (A) (A) (A) (A) (A) (A) (A) (A) (A)
                 (A) (A) (A) (A) (A) (A) (A) (A) (A) (A) (A) (A)
                 (A) (A) (A) (A) (A) (A) (A) (A) (A) (A) (A) (A)
                 (A) (A) (A) (A) (A) (A) (A) (A) (A) (A) (A) (A)
                 (A) (A) (A) (A) (A) (A) (A) (A) (A) (A) (A) (A)
                 (A) (A) (A) (A) (A) (A) (A) (A) (A) (A) (A) (A)
                 (A) (A) (A) (A) (A) (A) (A) (A) (A) (A) (A) (A)
                 (A) (A) (A) (A) (A) (A) (A) (A) (A) (A) (A) (A)
                 (A) (A) (A) (A) (A) (A) (A) (A) (A) (A) (A) (A)
                 (A) (A) (A) (A) (A) (A) (A) (A) (A) (A) (A) (A)
                 (A) (A) (A) (A) (A) (A) (A) (A) (A) (A) (A) (A)
                 (A) (A) (A) (A) (A) (A) (A) (A) (A) (A) (A) (A)
                 (A) (A) (A) (A) (A) (A) (A) (A) (A) (A) (A) (A)
                 (A) (A) (A) (A) (A) (A) (A) (A) (A) (A) (A) (A)
                 (A) (A) (A) (A) (A) (A) (A) (A) (A) (A) (A) (A)
                 (A) (A) (A) (A) (A) (A) (A) (A) (A) (A) (A) (A)
                 (A) (A) (A) (A) (A) (A) (A) (A) (A) (A) (A) (A)
                 (A) (A) (A) (A) (A) (A) (A) (A) (A) (A) (A) (A)
                 (A) (A) (A) (A) (A) (A) (A) (A) (A) (A) (A) (A)
                 (A) (A) (A) (A) (A) (A) (A) (A) (A) (A) (A) (A)
                 (A) (A) (A) (A) (A) (A) (A) (A) (A) (A) (A) (A)
                 (A) (A) (A) (A) (A) (A) (A) (A) (A) (A) (A) (A)
                 (A) (A) (A) (A) (A) (A) (A) (A) (A) (A) (A) (A)
                 (A) (A) (A) (A) (A) (A) (A) (A) (A) (A) (A) (A)
                 (A) (A) (A) (A) (A) (A) (A) (A) (A) (A) (A) (A)
                 (A) (A) (A) (A) (A) (A) (A) (A) (A) (A) (A) (A)
                 (A) (A) (A) (A) (A) (A) (A) (A) (A) (A) (A) (A)
                 (A) (A) (A) (A) (A) (A) (A) (A) (A) (A) (A) (A)
                 (A) (A) (A) (A) (A) (A) (A) (A) (A) (A) (A) (A)
                 (A) (A) (A) (A) (A) (A) (A) (A) (A) (A) (A) (A)
                 (A) (A) (A) (A) (A) (A) (A) (A) (A) (A) (A) (A)
                 (A) (A) (A) (A) (A) (A) (A) (A) (A) (A) (A) (A)
                 (A) (A) (A) (A) (A) (A) (A) (A) (A) (A) (A) (A)
                 (A) (A) (A) (A) (A) (A) (A) (A) (A) (A) (A) (A)
                 (A) (A) (A) (A) (A) (A) (A) (A) (A) (A) (A) (A)
                 (A) (A) (A) (A) (A) (A) (A) (A) (A) (A) (A) (A)
                 (A) (A) (A) (A) (A) (A) (A) (A) (A) (A) (A) (A)
                 (A) (A) (A) (A) (A) (A) (A) (A) (A) (A) (A) (A)
                 (A) (A) (A) (A) (A) (A) (A) (A) (A) (A) (A) (A)
                 (A) (A) (A) (A) (A) (A) (A) (A) (A) (A) (A) (A)
                 (A) (A) (A) (A) (A) (A) (A) (A) (A) (A) (A) (A)
                 (A) (A) (A) (A) (A) (A) (A) (A) (A) (A) (A) (A)
                 (A) (A) (A) (A) (A) (A) (A) (A) (A) (A) (A) (A)
                 (A) (A) (A) (A) (A) (A) (A) (A) (A) (A) (A) (A)
                 (A) (A) (A) (A) (A) (A) (A) (A) (A) (A) (A) (A)
                 (A) (A) (A) (A) (A) (A) (A) (A) (A) (A) (A) (A)
                 (A) (A) (A) (A) (A) (A) (A) (A) (A) (A) (A) (A)
                 (A) (A) (A) (A) (A) (A) (A) (A) (A) (A) (A) (A)
                 (A) (A) (A) (A) (A) (A) (A) (A) (A) (A) (A) (A)
                 (A) (A) (A) (A) (A) (A) (A) (A) (A) (A) (A) (A)
                 (A) (A) (A) (A) (A) (A) (A) (A) (A) (A) (A) (A)
                 (A) (A) (A) (A) (A) (A) (A) (A) (A) (A) (A) (A)
                 (A) (A) (A) (A) (A) (A) (A) (A) (A) (A) (A) (A)
                 (A) (A) (A) (A) (A) (A) (A) (A) (A) (A) (A) (A)
                 (A) (A) (A) (A) (A) (A) (A) (A) (A) (A) (A) (A)
                 (A) (A) (A) (A) (A) (A) (A) (A) (A) (A) (A) (A)
                 (A) (A) (A) (A) (A) (A) (A) (A) (A) (A) (A) (A)
                 (A) (A) (A) (A) (A) (A) (A) (A) (A) (A) (A) (A)
                 (A) (A) (A) (A) (A) (A) (A) (A) (A) (A) (A) (A)
                 (A) (A) (A) (A) (A) (A) (A) (A) (A) (A) (A) (A)
                 (A) (A) (A) (A) (A) (A) (A) (A) (A) (A) (A) (A)
                 (A) (A) (A) (A) (A) (A) (A) (A) (A) (A) (A) (A)
                 (A) (A) (A) (A) (A) (A) (A) (A) (A) (A) (A) (A)
                 (A) (A) (A) (A) (A) (A) (A) (A) (A) (A) (A) (A)
                 (A) (A) (A) (A) (A) (A) (A) (A) (A) (A) (A) (A)
                 (A) (A) (A) (A) (A) (A) (A) (A) (A) (A) (A) (A)
                 (A) (A) (A) (A) (A) (A) (A) (A) (A) (A) (A) (A)
                 (A) (A) (A) (A) (A) (A) (A) (A) (A) (A) (A) (A)
                 (A) (A) (A) (A) (A) (A) (A) (A) (A) (A) (A) (A)
                 (A) (A) (A) (A) (A) (A) (A) (A) (A) (A) (A) (A)
                 (A) (A) (A) (A) (A) (A) (A) (A) (A) (A) (A) (A)
                 (A) (A) (A) (A) (A) (A) (A) (A) (A) (A) (A) (A)
                 (A) (A) (A) (A) (A) (A) (A) (A) (A) (A) (A) (A)
                 (A) (A) (A) (A) (A) (A) (A) (A) (A) (A) (A) (A)
                 (A) (A) (A) (A) (A) (A) (A) (A) (A) (A) (A) (A)
                 (A) (A) (A) (A) (A) (A) (A) (A) (A) (A) (A) (A)
                 (A) (A) (A) (A) (A) (A) (A) (A) (A) (A) (A) (A)
                 (A) (A) (A) (A) (A) (A) (A) (A) (A) (A) (A) (A)
                 (A) (A) (A) (A) (A) (A) (A) (A) (A) (A) (A) (A)
                 (A) (A) (A) (A) (A) (A) (A) (A) (A) (A) (A) (A)
                 (A) (A) (A) (A) (A) (A) (A) (A) (A) (A) (A) (A)
                 (A) (A) (A) (A) (A) (A) (A) (A) (A) (A) (A) (A)
                 (A) (A) (A) (A) (A) (A) (A) (A) (A) (A) (A) (A)
                 (A) (A) (A) (A) (A) (A) (A) (A) (A) (A) (A) (A)
                 (A) (A) (A) (A) (A) (A) (A) (A) (A) (A) (A) (A)
                 (A) (A) (A) (A) (A) (A) (A) (A) (A) (A) (A) (A)
                 (A) (A) (A) (A) (A) (A) (A) (A) (A) (A) (A) (A)
                 (A) (A) (A) (A) (A) (A) (A) (A) (A) (A) (A) (A)
                 (A) (A) (A) (A) (A) (A) (A) (A) (A) (A) (A) (A)
                 (A) (A) (A) (A) (A) (A) (A) (A) (A) (A) (A) (A)
                 (A) (A) (A) (A) (A) (A) (A) (A) (A) (A) (A) (A)
                 (A) (A) (A) (A) (A) (A) (A) (A) (A) (A) (A) (A)
                 (A) (A) (A) (A) (A) (A) (A) (A) (A) (A) (A) (A)
                 (A) (A) (A) (A) (A) (A) (A) (A) (A) (A) (A) (A)
                 (A) (A) (A) (A) (A) (A) (A) (A) (A) (A) (A) (A)
                 (A) (A) (A) (A) (A) (A) (A) (A) (A) (A) (A) (A)
                 (A) (A) (A) (A) (A) (A) (A) (A) (A) (A) (A) (A)
                 (A) (A) (A) (A) (A) (A) (A) (A) (A) (A) (A) (A)
                 (A) (A) (A) (A) (A) (A) (A) (A) (A) (A) (A) (A)
                 (A) (A) (A) (A) (A) (A) (A) (A) (A) (A) (A) (A)
                 (A) (A) (A) (A) (A) (A) (A) (A) (A) (A) (A) (A)
                 (A) (A) (A) (A) (A) (A) (A) (A) (A) (A) (A) (A)
                 (A) (A) (A) (A) (A) (A) (A) (A) (A) (A) (A) (A)
                 (A) (A) (A) (A) (A) (A) (A) (A) (A) (A) (A) (A)
                 (A) (A) (A) (A) (A) (A) (A) (A) (A) (A) (A) (A)
                 (A) (A) (A) (A) (A) (A) (A) (A) (A) (A) (A) (A)
                 (A) (A) (A) (A) (A) (A) (A) (A)
 Beta  Orbitals:
       Occupied  (A) (A) (A) (A) (A) (A) (A) (A) (A) (A) (A) (A)
                 (A) (A) (A) (A) (A) (A) (A) (A) (A) (A) (A) (A)
                 (A) (A) (A) (A) (A) (A) (A) (A) (A) (A) (A) (A)
                 (A) (A) (A) (A) (A) (A) (A) (A) (A) (A) (A) (A)
                 (A) (A) (A) (A) (A) (A) (A) (A) (A) (A) (A) (A)
                 (A) (A) (A) (A) (A) (A) (A) (A) (A) (A) (A) (A)
                 (A) (A) (A) (A) (A) (A) (A) (A) (A) (A) (A) (A)
                 (A) (A) (A) (A) (A) (A) (A) (A) (A) (A) (A) (A)
                 (A) (A) (A) (A) (A) (A) (A) (A) (A) (A) (A) (A)
                 (A) (A) (A) (A) (A) (A) (A) (A) (A) (A) (A) (A)
                 (A) (A) (A) (A) (A) (A) (A) (A) (A) (A) (A) (A)
                 (A) (A) (A) (A) (A) (A) (A) (A) (A) (A) (A)
       Virtual   (A) (A) (A) (A) (A) (A) (A) (A) (A) (A) (A) (A)
                 (A) (A) (A) (A) (A) (A) (A) (A) (A) (A) (A) (A)
                 (A) (A) (A) (A) (A) (A) (A) (A) (A) (A) (A) (A)
                 (A) (A) (A) (A) (A) (A) (A) (A) (A) (A) (A) (A)
                 (A) (A) (A) (A) (A) (A) (A) (A) (A) (A) (A) (A)
                 (A) (A) (A) (A) (A) (A) (A) (A) (A) (A) (A) (A)
                 (A) (A) (A) (A) (A) (A) (A) (A) (A) (A) (A) (A)
                 (A) (A) (A) (A) (A) (A) (A) (A) (A) (A) (A) (A)
                 (A) (A) (A) (A) (A) (A) (A) (A) (A) (A) (A) (A)
                 (A) (A) (A) (A) (A) (A) (A) (A) (A) (A) (A) (A)
                 (A) (A) (A) (A) (A) (A) (A) (A) (A) (A) (A) (A)
                 (A) (A) (A) (A) (A) (A) (A) (A) (A) (A) (A) (A)
                 (A) (A) (A) (A) (A) (A) (A) (A) (A) (A) (A) (A)
                 (A) (A) (A) (A) (A) (A) (A) (A) (A) (A) (A) (A)
                 (A) (A) (A) (A) (A) (A) (A) (A) (A) (A) (A) (A)
                 (A) (A) (A) (A) (A) (A) (A) (A) (A) (A) (A) (A)
                 (A) (A) (A) (A) (A) (A) (A) (A) (A) (A) (A) (A)
                 (A) (A) (A) (A) (A) (A) (A) (A) (A) (A) (A) (A)
                 (A) (A) (A) (A) (A) (A) (A) (A) (A) (A) (A) (A)
                 (A) (A) (A) (A) (A) (A) (A) (A) (A) (A) (A) (A)
                 (A) (A) (A) (A) (A) (A) (A) (A) (A) (A) (A) (A)
                 (A) (A) (A) (A) (A) (A) (A) (A) (A) (A) (A) (A)
                 (A) (A) (A) (A) (A) (A) (A) (A) (A) (A) (A) (A)
                 (A) (A) (A) (A) (A) (A) (A) (A) (A) (A) (A) (A)
                 (A) (A) (A) (A) (A) (A) (A) (A) (A) (A) (A) (A)
                 (A) (A) (A) (A) (A) (A) (A) (A) (A) (A) (A) (A)
                 (A) (A) (A) (A) (A) (A) (A) (A) (A) (A) (A) (A)
                 (A) (A) (A) (A) (A) (A) (A) (A) (A) (A) (A) (A)
                 (A) (A) (A) (A) (A) (A) (A) (A) (A) (A) (A) (A)
                 (A) (A) (A) (A) (A) (A) (A) (A) (A) (A) (A) (A)
                 (A) (A) (A) (A) (A) (A) (A) (A) (A) (A) (A) (A)
                 (A) (A) (A) (A) (A) (A) (A) (A) (A) (A) (A) (A)
                 (A) (A) (A) (A) (A) (A) (A) (A) (A) (A) (A) (A)
                 (A) (A) (A) (A) (A) (A) (A) (A) (A) (A) (A) (A)
                 (A) (A) (A) (A) (A) (A) (A) (A) (A) (A) (A) (A)
                 (A) (A) (A) (A) (A) (A) (A) (A) (A) (A) (A) (A)
                 (A) (A) (A) (A) (A) (A) (A) (A) (A) (A) (A) (A)
                 (A) (A) (A) (A) (A) (A) (A) (A) (A) (A) (A) (A)
                 (A) (A) (A) (A) (A) (A) (A) (A) (A) (A) (A) (A)
                 (A) (A) (A) (A) (A) (A) (A) (A) (A) (A) (A) (A)
                 (A) (A) (A) (A) (A) (A) (A) (A) (A) (A) (A) (A)
                 (A) (A) (A) (A) (A) (A) (A) (A) (A) (A) (A) (A)
                 (A) (A) (A) (A) (A) (A) (A) (A) (A) (A) (A) (A)
                 (A) (A) (A) (A) (A) (A) (A) (A) (A) (A) (A) (A)
                 (A) (A) (A) (A) (A) (A) (A) (A) (A) (A) (A) (A)
                 (A) (A) (A) (A) (A) (A) (A) (A) (A) (A) (A) (A)
                 (A) (A) (A) (A) (A) (A) (A) (A) (A) (A) (A) (A)
                 (A) (A) (A) (A) (A) (A) (A) (A) (A) (A) (A) (A)
                 (A) (A) (A) (A) (A) (A) (A) (A) (A) (A) (A) (A)
                 (A) (A) (A) (A) (A) (A) (A) (A) (A) (A) (A) (A)
                 (A) (A) (A) (A) (A) (A) (A) (A) (A) (A) (A) (A)
                 (A) (A) (A) (A) (A) (A) (A) (A) (A) (A) (A) (A)
                 (A) (A) (A) (A) (A) (A) (A) (A) (A) (A) (A) (A)
                 (A) (A) (A) (A) (A) (A) (A) (A) (A) (A) (A) (A)
                 (A) (A) (A) (A) (A) (A) (A) (A) (A) (A) (A) (A)
                 (A) (A) (A) (A) (A) (A) (A) (A) (A) (A) (A) (A)
                 (A) (A) (A) (A) (A) (A) (A) (A) (A) (A) (A) (A)
                 (A) (A) (A) (A) (A) (A) (A) (A) (A) (A) (A) (A)
                 (A) (A) (A) (A) (A) (A) (A) (A) (A) (A) (A) (A)
                 (A) (A) (A) (A) (A) (A) (A) (A) (A) (A) (A) (A)
                 (A) (A) (A) (A) (A) (A) (A) (A) (A) (A) (A) (A)
                 (A) (A) (A) (A) (A) (A) (A) (A) (A) (A) (A) (A)
                 (A) (A) (A) (A) (A) (A) (A) (A) (A) (A) (A) (A)
                 (A) (A) (A) (A) (A) (A) (A) (A) (A) (A) (A) (A)
                 (A) (A) (A) (A) (A) (A) (A) (A) (A) (A) (A) (A)
                 (A) (A) (A) (A) (A) (A) (A) (A) (A) (A) (A) (A)
                 (A) (A) (A) (A) (A) (A) (A) (A) (A) (A) (A) (A)
                 (A) (A) (A) (A) (A) (A) (A) (A) (A) (A) (A) (A)
                 (A) (A) (A) (A) (A) (A) (A) (A) (A) (A) (A) (A)
                 (A) (A) (A) (A) (A) (A) (A) (A) (A) (A) (A) (A)
                 (A) (A) (A) (A) (A) (A) (A) (A) (A) (A) (A) (A)
                 (A) (A) (A) (A) (A) (A) (A) (A) (A) (A) (A) (A)
                 (A) (A) (A) (A) (A) (A) (A) (A) (A) (A) (A) (A)
                 (A) (A) (A) (A) (A) (A) (A) (A) (A) (A) (A) (A)
                 (A) (A) (A) (A) (A) (A) (A) (A) (A) (A) (A) (A)
                 (A) (A) (A) (A) (A) (A) (A) (A) (A) (A) (A) (A)
                 (A) (A) (A) (A) (A) (A) (A) (A) (A) (A) (A) (A)
                 (A) (A) (A) (A) (A) (A) (A) (A) (A) (A) (A) (A)
                 (A) (A) (A) (A) (A) (A) (A) (A) (A) (A) (A) (A)
                 (A) (A) (A) (A) (A) (A) (A) (A) (A) (A) (A) (A)
                 (A) (A) (A) (A) (A) (A) (A) (A) (A) (A) (A) (A)
                 (A) (A) (A) (A) (A) (A) (A) (A) (A) (A) (A) (A)
                 (A) (A) (A) (A) (A) (A) (A) (A) (A) (A) (A) (A)
                 (A) (A) (A) (A) (A) (A) (A) (A) (A) (A) (A) (A)
                 (A) (A) (A) (A) (A) (A) (A) (A) (A) (A) (A) (A)
                 (A) (A) (A) (A) (A) (A) (A) (A) (A) (A) (A) (A)
                 (A) (A) (A) (A) (A) (A) (A) (A) (A) (A) (A) (A)
                 (A) (A) (A) (A) (A) (A) (A) (A) (A) (A) (A) (A)
                 (A) (A) (A) (A) (A) (A) (A) (A) (A) (A) (A) (A)
                 (A) (A) (A) (A) (A) (A) (A) (A) (A) (A) (A) (A)
                 (A) (A) (A) (A) (A) (A) (A) (A) (A) (A) (A) (A)
                 (A) (A) (A) (A) (A) (A) (A) (A) (A) (A) (A) (A)
                 (A) (A) (A) (A) (A) (A) (A) (A) (A) (A) (A) (A)
                 (A) (A) (A) (A) (A) (A) (A) (A) (A) (A) (A) (A)
                 (A) (A) (A) (A) (A) (A) (A) (A) (A) (A) (A) (A)
                 (A) (A) (A) (A) (A) (A) (A) (A) (A) (A) (A) (A)
                 (A) (A) (A) (A) (A) (A) (A) (A) (A) (A) (A) (A)
                 (A) (A) (A) (A) (A) (A) (A) (A) (A) (A) (A) (A)
                 (A) (A) (A) (A) (A) (A) (A) (A) (A) (A) (A) (A)
                 (A) (A) (A) (A) (A) (A) (A) (A) (A) (A) (A) (A)
                 (A) (A) (A) (A) (A) (A) (A) (A) (A) (A) (A) (A)
                 (A) (A) (A) (A) (A) (A) (A) (A) (A) (A) (A) (A)
                 (A) (A) (A) (A) (A) (A) (A) (A) (A) (A) (A) (A)
                 (A) (A) (A) (A) (A) (A) (A) (A) (A) (A) (A) (A)
                 (A) (A) (A) (A) (A) (A) (A) (A) (A) (A) (A) (A)
                 (A) (A) (A) (A) (A) (A) (A) (A) (A) (A) (A) (A)
                 (A) (A) (A) (A) (A) (A) (A) (A) (A) (A) (A) (A)
                 (A) (A) (A) (A) (A) (A) (A) (A) (A) (A) (A) (A)
                 (A) (A) (A) (A) (A) (A) (A) (A) (A) (A) (A) (A)
                 (A) (A) (A) (A) (A) (A) (A) (A) (A) (A) (A) (A)
                 (A) (A) (A) (A) (A) (A) (A) (A) (A) (A) (A) (A)
                 (A) (A) (A) (A) (A) (A) (A) (A) (A) (A) (A) (A)
                 (A) (A) (A) (A) (A) (A) (A) (A) (A) (A) (A) (A)
                 (A) (A) (A) (A) (A) (A) (A) (A) (A) (A) (A) (A)
                 (A) (A) (A) (A) (A) (A) (A) (A) (A) (A) (A) (A)
                 (A) (A) (A) (A) (A) (A) (A) (A) (A) (A) (A) (A)
                 (A) (A) (A) (A) (A) (A) (A) (A) (A) (A) (A) (A)
                 (A) (A) (A) (A) (A) (A) (A) (A) (A) (A) (A) (A)
                 (A) (A) (A) (A) (A) (A) (A) (A) (A) (A) (A) (A)
                 (A) (A) (A) (A) (A) (A) (A) (A) (A) (A) (A) (A)
                 (A) (A) (A) (A) (A) (A) (A) (A) (A) (A) (A) (A)
                 (A) (A) (A) (A) (A) (A) (A) (A) (A) (A) (A) (A)
                 (A) (A) (A) (A) (A) (A) (A) (A) (A) (A) (A) (A)
                 (A) (A) (A) (A) (A) (A) (A) (A) (A) (A) (A) (A)
                 (A) (A) (A) (A) (A) (A) (A) (A) (A) (A) (A) (A)
                 (A) (A) (A) (A) (A) (A) (A) (A) (A)
 The electronic state is 2-A.
 Alpha  occ. eigenvalues --  -25.19339 -25.19102 -14.76247 -14.76247 -14.76063
 Alpha  occ. eigenvalues --  -14.76063 -10.59218 -10.59218 -10.58460 -10.58460
 Alpha  occ. eigenvalues --  -10.57291 -10.57289 -10.57162 -10.57162 -10.57125
 Alpha  occ. eigenvalues --  -10.57125 -10.56692 -10.56692 -10.56674 -10.56674
 Alpha  occ. eigenvalues --  -10.55794 -10.55570 -10.55497 -10.55497 -10.55436
 Alpha  occ. eigenvalues --  -10.55436 -10.55191 -10.55191 -10.54774 -10.54736
 Alpha  occ. eigenvalues --  -10.54673 -10.54624 -10.54617 -10.54414 -10.54414
 Alpha  occ. eigenvalues --  -10.54405 -10.54405 -10.52952 -10.52952 -10.52895
 Alpha  occ. eigenvalues --  -10.52895  -7.11373  -1.30996  -1.27733  -1.08207
 Alpha  occ. eigenvalues --   -1.06206  -1.02278  -1.02278  -0.97993  -0.97985
 Alpha  occ. eigenvalues --   -0.96801  -0.92141  -0.91380  -0.90166  -0.89298
 Alpha  occ. eigenvalues --   -0.88470  -0.86491  -0.86202  -0.86027  -0.85913
 Alpha  occ. eigenvalues --   -0.84477  -0.82550  -0.80217  -0.79512  -0.77920
 Alpha  occ. eigenvalues --   -0.76571  -0.73781  -0.71455  -0.70790  -0.70691
 Alpha  occ. eigenvalues --   -0.69080  -0.68399  -0.67667  -0.67363  -0.65034
 Alpha  occ. eigenvalues --   -0.63704  -0.63653  -0.63047  -0.62687  -0.60963
 Alpha  occ. eigenvalues --   -0.59544  -0.59306  -0.57823  -0.57471  -0.56767
 Alpha  occ. eigenvalues --   -0.56184  -0.54816  -0.54143  -0.54088  -0.52671
 Alpha  occ. eigenvalues --   -0.52564  -0.52448  -0.51671  -0.51472  -0.50820
 Alpha  occ. eigenvalues --   -0.50386  -0.50189  -0.50123  -0.50039  -0.49005
 Alpha  occ. eigenvalues --   -0.48951  -0.48792  -0.48291  -0.48148  -0.48147
 Alpha  occ. eigenvalues --   -0.47540  -0.47515  -0.46835  -0.46677  -0.46676
 Alpha  occ. eigenvalues --   -0.46367  -0.45799  -0.45377  -0.45240  -0.45175
 Alpha  occ. eigenvalues --   -0.44435  -0.43386  -0.43327  -0.43268  -0.43157
 Alpha  occ. eigenvalues --   -0.43043  -0.42647  -0.42279  -0.42276  -0.41040
 Alpha  occ. eigenvalues --   -0.40999  -0.40792  -0.40001  -0.39845  -0.39734
 Alpha  occ. eigenvalues --   -0.38658  -0.38515  -0.37373  -0.34486  -0.32891
 Alpha  occ. eigenvalues --   -0.32890  -0.31349  -0.31186  -0.30835  -0.30622
 Alpha  occ. eigenvalues --   -0.29641  -0.28262  -0.23072  -0.17399
 Alpha virt. eigenvalues --   -0.05496  -0.03739   0.00628   0.00633   0.01138
 Alpha virt. eigenvalues --    0.01178   0.02654   0.03076   0.06247   0.06452
 Alpha virt. eigenvalues --    0.06596   0.06933   0.07795   0.08109   0.08292
 Alpha virt. eigenvalues --    0.09121   0.09278   0.09416   0.09807   0.10078
 Alpha virt. eigenvalues --    0.10132   0.10382   0.11109   0.11790   0.11931
 Alpha virt. eigenvalues --    0.12067   0.12289   0.12484   0.12706   0.13412
 Alpha virt. eigenvalues --    0.13685   0.13961   0.14352   0.14459   0.14538
 Alpha virt. eigenvalues --    0.14649   0.14832   0.15076   0.15918   0.15934
 Alpha virt. eigenvalues --    0.16345   0.16346   0.16900   0.16902   0.17908
 Alpha virt. eigenvalues --    0.18121   0.18153   0.18530   0.18600   0.18870
 Alpha virt. eigenvalues --    0.19105   0.19142   0.20021   0.20218   0.20322
 Alpha virt. eigenvalues --    0.21010   0.21446   0.21829   0.21939   0.22182
 Alpha virt. eigenvalues --    0.22677   0.22892   0.22973   0.22997   0.23137
 Alpha virt. eigenvalues --    0.23564   0.23723   0.23920   0.24757   0.24904
 Alpha virt. eigenvalues --    0.24989   0.25187   0.26159   0.26160   0.26539
 Alpha virt. eigenvalues --    0.26611   0.26831   0.26926   0.27102   0.27297
 Alpha virt. eigenvalues --    0.27521   0.27662   0.27791   0.27989   0.28091
 Alpha virt. eigenvalues --    0.28408   0.28981   0.29025   0.29364   0.29492
 Alpha virt. eigenvalues --    0.29645   0.29768   0.30155   0.30787   0.30907
 Alpha virt. eigenvalues --    0.31345   0.31369   0.31686   0.31903   0.32169
 Alpha virt. eigenvalues --    0.32173   0.32655   0.32986   0.33167   0.33375
 Alpha virt. eigenvalues --    0.33739   0.33984   0.34292   0.34661   0.34823
 Alpha virt. eigenvalues --    0.34867   0.35122   0.35478   0.35604   0.35944
 Alpha virt. eigenvalues --    0.36379   0.36436   0.36533   0.36751   0.36946
 Alpha virt. eigenvalues --    0.37097   0.37249   0.37627   0.37699   0.37950
 Alpha virt. eigenvalues --    0.38238   0.38555   0.39009   0.39365   0.39750
 Alpha virt. eigenvalues --    0.39816   0.39852   0.39988   0.40540   0.40567
 Alpha virt. eigenvalues --    0.40927   0.40967   0.41196   0.41491   0.41621
 Alpha virt. eigenvalues --    0.41807   0.42223   0.42515   0.42582   0.42978
 Alpha virt. eigenvalues --    0.43314   0.43350   0.43966   0.44004   0.44248
 Alpha virt. eigenvalues --    0.44754   0.44771   0.44932   0.45143   0.45680
 Alpha virt. eigenvalues --    0.45727   0.46007   0.46123   0.46137   0.46369
 Alpha virt. eigenvalues --    0.46478   0.46885   0.46945   0.47649   0.47951
 Alpha virt. eigenvalues --    0.48381   0.48675   0.48962   0.49140   0.49617
 Alpha virt. eigenvalues --    0.49917   0.50244   0.50506   0.50635   0.50922
 Alpha virt. eigenvalues --    0.51042   0.51112   0.51497   0.51697   0.51994
 Alpha virt. eigenvalues --    0.52044   0.52248   0.52593   0.52839   0.52846
 Alpha virt. eigenvalues --    0.53093   0.53386   0.53435   0.53641   0.54221
 Alpha virt. eigenvalues --    0.54335   0.54359   0.54548   0.55170   0.55758
 Alpha virt. eigenvalues --    0.56094   0.56271   0.56513   0.56882   0.56991
 Alpha virt. eigenvalues --    0.57072   0.57680   0.58401   0.58410   0.59311
 Alpha virt. eigenvalues --    0.59379   0.59860   0.60075   0.60173   0.60987
 Alpha virt. eigenvalues --    0.61012   0.61753   0.61846   0.62345   0.62497
 Alpha virt. eigenvalues --    0.62563   0.63029   0.63159   0.63697   0.63787
 Alpha virt. eigenvalues --    0.64154   0.64893   0.65269   0.65414   0.65428
 Alpha virt. eigenvalues --    0.65610   0.65894   0.66449   0.66464   0.66664
 Alpha virt. eigenvalues --    0.66868   0.67080   0.67364   0.67518   0.67972
 Alpha virt. eigenvalues --    0.68601   0.68681   0.68780   0.68885   0.69198
 Alpha virt. eigenvalues --    0.69319   0.69664   0.69672   0.69868   0.70146
 Alpha virt. eigenvalues --    0.70467   0.70934   0.70998   0.71207   0.71260
 Alpha virt. eigenvalues --    0.71583   0.72402   0.72601   0.72640   0.72901
 Alpha virt. eigenvalues --    0.73479   0.73819   0.73986   0.74086   0.74631
 Alpha virt. eigenvalues --    0.74696   0.74877   0.75318   0.75466   0.75869
 Alpha virt. eigenvalues --    0.76253   0.76865   0.76992   0.77149   0.77426
 Alpha virt. eigenvalues --    0.77602   0.78157   0.78933   0.79118   0.79245
 Alpha virt. eigenvalues --    0.79472   0.79538   0.79768   0.80000   0.80399
 Alpha virt. eigenvalues --    0.80810   0.80863   0.81429   0.81481   0.82023
 Alpha virt. eigenvalues --    0.82626   0.82800   0.83364   0.83446   0.83882
 Alpha virt. eigenvalues --    0.84077   0.84170   0.84529   0.84695   0.84829
 Alpha virt. eigenvalues --    0.85250   0.85345   0.85878   0.85889   0.86306
 Alpha virt. eigenvalues --    0.87687   0.87865   0.88405   0.88539   0.88615
 Alpha virt. eigenvalues --    0.89098   0.89626   0.89908   0.90092   0.90289
 Alpha virt. eigenvalues --    0.90874   0.91068   0.91973   0.92211   0.92289
 Alpha virt. eigenvalues --    0.92547   0.92688   0.93010   0.93996   0.94444
 Alpha virt. eigenvalues --    0.94765   0.95118   0.95470   0.96262   0.96675
 Alpha virt. eigenvalues --    0.97123   0.97292   0.97521   0.98324   0.98371
 Alpha virt. eigenvalues --    0.98699   0.98801   0.99419   0.99767   0.99995
 Alpha virt. eigenvalues --    1.00508   1.00673   1.00849   1.01192   1.01312
 Alpha virt. eigenvalues --    1.01567   1.01866   1.02037   1.02402   1.02679
 Alpha virt. eigenvalues --    1.02781   1.03052   1.03349   1.03605   1.04234
 Alpha virt. eigenvalues --    1.04257   1.04568   1.04751   1.05163   1.05417
 Alpha virt. eigenvalues --    1.05634   1.05805   1.06127   1.06306   1.07082
 Alpha virt. eigenvalues --    1.07462   1.08359   1.08552   1.08935   1.09960
 Alpha virt. eigenvalues --    1.10149   1.10245   1.10510   1.10610   1.11162
 Alpha virt. eigenvalues --    1.11654   1.11791   1.12012   1.12030   1.12664
 Alpha virt. eigenvalues --    1.12910   1.13050   1.13857   1.14369   1.14896
 Alpha virt. eigenvalues --    1.14994   1.15239   1.15781   1.15990   1.16102
 Alpha virt. eigenvalues --    1.16737   1.16851   1.17220   1.17351   1.17427
 Alpha virt. eigenvalues --    1.17891   1.18221   1.18551   1.19073   1.19640
 Alpha virt. eigenvalues --    1.19912   1.20830   1.21599   1.21797   1.22041
 Alpha virt. eigenvalues --    1.22072   1.22511   1.22788   1.22835   1.23176
 Alpha virt. eigenvalues --    1.23308   1.24098   1.24279   1.24569   1.24812
 Alpha virt. eigenvalues --    1.24932   1.24954   1.25315   1.25819   1.25969
 Alpha virt. eigenvalues --    1.26286   1.26545   1.26685   1.27322   1.27679
 Alpha virt. eigenvalues --    1.28365   1.28590   1.28598   1.28875   1.29449
 Alpha virt. eigenvalues --    1.29667   1.30028   1.30122   1.30555   1.30987
 Alpha virt. eigenvalues --    1.31075   1.31300   1.31500   1.32474   1.32527
 Alpha virt. eigenvalues --    1.33852   1.33966   1.34015   1.34175   1.34829
 Alpha virt. eigenvalues --    1.35409   1.35885   1.36109   1.36564   1.36864
 Alpha virt. eigenvalues --    1.37110   1.37556   1.38333   1.38400   1.38601
 Alpha virt. eigenvalues --    1.38827   1.39001   1.39255   1.39392   1.40059
 Alpha virt. eigenvalues --    1.40115   1.40149   1.40474   1.40585   1.42046
 Alpha virt. eigenvalues --    1.42678   1.42772   1.43048   1.44212   1.44218
 Alpha virt. eigenvalues --    1.44655   1.44944   1.45025   1.45589   1.45603
 Alpha virt. eigenvalues --    1.45987   1.46004   1.46184   1.46211   1.46333
 Alpha virt. eigenvalues --    1.46537   1.47004   1.47628   1.47840   1.48808
 Alpha virt. eigenvalues --    1.49205   1.49252   1.50086   1.50261   1.50491
 Alpha virt. eigenvalues --    1.50980   1.51436   1.51521   1.51898   1.52026
 Alpha virt. eigenvalues --    1.52279   1.52540   1.52796   1.53541   1.53699
 Alpha virt. eigenvalues --    1.54203   1.54865   1.55361   1.55725   1.56101
 Alpha virt. eigenvalues --    1.56312   1.56668   1.56830   1.57264   1.57391
 Alpha virt. eigenvalues --    1.57498   1.57636   1.58211   1.58328   1.58456
 Alpha virt. eigenvalues --    1.58567   1.59036   1.59083   1.59440   1.59620
 Alpha virt. eigenvalues --    1.59679   1.59793   1.60351   1.60722   1.61552
 Alpha virt. eigenvalues --    1.61610   1.62472   1.62646   1.62817   1.63208
 Alpha virt. eigenvalues --    1.63416   1.63982   1.64548   1.64905   1.64923
 Alpha virt. eigenvalues --    1.65226   1.66030   1.66132   1.67174   1.67703
 Alpha virt. eigenvalues --    1.67728   1.67848   1.67965   1.68085   1.69062
 Alpha virt. eigenvalues --    1.69087   1.69983   1.70118   1.70525   1.71581
 Alpha virt. eigenvalues --    1.71714   1.72083   1.72190   1.72674   1.73160
 Alpha virt. eigenvalues --    1.73637   1.74538   1.74899   1.75119   1.75896
 Alpha virt. eigenvalues --    1.76792   1.77083   1.77109   1.77648   1.77832
 Alpha virt. eigenvalues --    1.78445   1.78889   1.79535   1.80169   1.80588
 Alpha virt. eigenvalues --    1.81256   1.81506   1.82195   1.82458   1.82464
 Alpha virt. eigenvalues --    1.82971   1.83530   1.84632   1.85045   1.85673
 Alpha virt. eigenvalues --    1.86144   1.86871   1.88140   1.88501   1.88509
 Alpha virt. eigenvalues --    1.88949   1.89381   1.89396   1.89755   1.89794
 Alpha virt. eigenvalues --    1.90386   1.90489   1.91248   1.92416   1.92665
 Alpha virt. eigenvalues --    1.93479   1.93491   1.93770   1.94029   1.94502
 Alpha virt. eigenvalues --    1.94771   1.95453   1.95564   1.96088   1.97557
 Alpha virt. eigenvalues --    1.97801   1.98469   1.98496   1.99224   1.99950
 Alpha virt. eigenvalues --    2.00508   2.00654   2.00989   2.01352   2.01603
 Alpha virt. eigenvalues --    2.02451   2.03153   2.03396   2.04119   2.04213
 Alpha virt. eigenvalues --    2.05105   2.06095   2.06379   2.06411   2.06877
 Alpha virt. eigenvalues --    2.07864   2.07910   2.08529   2.08585   2.08764
 Alpha virt. eigenvalues --    2.09045   2.09595   2.10038   2.10509   2.11052
 Alpha virt. eigenvalues --    2.11581   2.12818   2.13189   2.13719   2.13914
 Alpha virt. eigenvalues --    2.15159   2.16239   2.16724   2.17101   2.17181
 Alpha virt. eigenvalues --    2.17894   2.18897   2.19820   2.20792   2.21159
 Alpha virt. eigenvalues --    2.22784   2.23506   2.23848   2.25463   2.26000
 Alpha virt. eigenvalues --    2.26765   2.27788   2.27879   2.28380   2.28722
 Alpha virt. eigenvalues --    2.29048   2.29776   2.30616   2.30659   2.31790
 Alpha virt. eigenvalues --    2.32609   2.32661   2.33397   2.33692   2.34219
 Alpha virt. eigenvalues --    2.34544   2.35107   2.35765   2.35885   2.37212
 Alpha virt. eigenvalues --    2.37304   2.37511   2.37862   2.38248   2.38503
 Alpha virt. eigenvalues --    2.39395   2.39464   2.39950   2.40328   2.40476
 Alpha virt. eigenvalues --    2.40640   2.41122   2.41153   2.41676   2.42892
 Alpha virt. eigenvalues --    2.43014   2.43751   2.43794   2.45101   2.45353
 Alpha virt. eigenvalues --    2.46282   2.47346   2.47731   2.48452   2.49365
 Alpha virt. eigenvalues --    2.49490   2.50414   2.50837   2.50965   2.53649
 Alpha virt. eigenvalues --    2.54288   2.55090   2.55337   2.55758   2.56381
 Alpha virt. eigenvalues --    2.57731   2.58136   2.58594   2.59043   2.60819
 Alpha virt. eigenvalues --    2.60853   2.61055   2.61721   2.62106   2.62241
 Alpha virt. eigenvalues --    2.62797   2.63662   2.63827   2.63844   2.64276
 Alpha virt. eigenvalues --    2.64676   2.64942   2.66694   2.66757   2.66967
 Alpha virt. eigenvalues --    2.66978   2.67447   2.67977   2.68147   2.68437
 Alpha virt. eigenvalues --    2.68536   2.68563   2.69204   2.69624   2.69732
 Alpha virt. eigenvalues --    2.70565   2.71583   2.71762   2.72918   2.73400
 Alpha virt. eigenvalues --    2.73874   2.74307   2.74936   2.74974   2.75026
 Alpha virt. eigenvalues --    2.75092   2.75823   2.75829   2.76016   2.76570
 Alpha virt. eigenvalues --    2.76963   2.77232   2.77418   2.77586   2.77746
 Alpha virt. eigenvalues --    2.77819   2.78285   2.79029   2.79382   2.79539
 Alpha virt. eigenvalues --    2.80339   2.80661   2.80905   2.80957   2.81051
 Alpha virt. eigenvalues --    2.81114   2.82468   2.82541   2.82798   2.83005
 Alpha virt. eigenvalues --    2.83382   2.83595   2.84094   2.84734   2.85721
 Alpha virt. eigenvalues --    2.85767   2.85802   2.86521   2.87073   2.87200
 Alpha virt. eigenvalues --    2.87358   2.87962   2.87975   2.88183   2.88891
 Alpha virt. eigenvalues --    2.89218   2.89595   2.89831   2.90647   2.91155
 Alpha virt. eigenvalues --    2.91209   2.92135   2.92236   2.92499   2.92717
 Alpha virt. eigenvalues --    2.92772   2.92817   2.92901   2.93196   2.93416
 Alpha virt. eigenvalues --    2.93551   2.93974   2.94094   2.94450   2.94744
 Alpha virt. eigenvalues --    2.95006   2.95086   2.95447   2.96524   2.97095
 Alpha virt. eigenvalues --    2.97616   2.97841   2.97899   2.98323   2.98401
 Alpha virt. eigenvalues --    2.99238   2.99335   2.99716   3.00310   3.00401
 Alpha virt. eigenvalues --    3.00802   3.00998   3.01247   3.01295   3.01424
 Alpha virt. eigenvalues --    3.01821   3.02040   3.02365   3.02402   3.02634
 Alpha virt. eigenvalues --    3.02870   3.02925   3.03107   3.03287   3.03483
 Alpha virt. eigenvalues --    3.03606   3.04657   3.04840   3.04944   3.05192
 Alpha virt. eigenvalues --    3.05332   3.05622   3.06175   3.07015   3.07129
 Alpha virt. eigenvalues --    3.07166   3.07295   3.07586   3.07902   3.08377
 Alpha virt. eigenvalues --    3.08384   3.08592   3.08707   3.09601   3.09712
 Alpha virt. eigenvalues --    3.10080   3.10094   3.10435   3.10479   3.10614
 Alpha virt. eigenvalues --    3.10727   3.11151   3.11557   3.11559   3.11952
 Alpha virt. eigenvalues --    3.12461   3.12729   3.12730   3.13266   3.13567
 Alpha virt. eigenvalues --    3.14243   3.14532   3.14669   3.15191   3.15374
 Alpha virt. eigenvalues --    3.15397   3.15829   3.16108   3.16433   3.16708
 Alpha virt. eigenvalues --    3.17419   3.17431   3.17783   3.17908   3.18089
 Alpha virt. eigenvalues --    3.18230   3.18706   3.18937   3.19057   3.19190
 Alpha virt. eigenvalues --    3.20046   3.20147   3.20183   3.20980   3.21610
 Alpha virt. eigenvalues --    3.21955   3.22292   3.22300   3.22477   3.22579
 Alpha virt. eigenvalues --    3.23143   3.23323   3.23383   3.23637   3.24050
 Alpha virt. eigenvalues --    3.24223   3.25191   3.25293   3.25364   3.25517
[...]
     1 C(13)  Bbb     0.0001     0.008     0.003     0.003 -0.0207  0.0166  0.9996
              Bcc     0.0014     0.186     0.066     0.062  0.6231  0.7821 -0.0001
 
              Baa    -0.0704    -9.445    -3.370    -3.151  0.9978 -0.0636 -0.0186
     2 C(13)  Bbb    -0.0694    -9.315    -3.324    -3.107  0.0628  0.9971 -0.0438
              Bcc     0.1398    18.760     6.694     6.258  0.0213  0.0425  0.9989
 
              Baa    -0.0717    -9.625    -3.434    -3.211  0.0340  0.0438  0.9985
     3 C(13)  Bbb     0.0345     4.633     1.653     1.545  0.1943  0.9797 -0.0496
              Bcc     0.0372     4.992     1.781     1.665  0.9803 -0.1957 -0.0248
 
              Baa    -0.0899   -12.063    -4.304    -4.024  0.5214  0.8527 -0.0307
     4 C(13)  Bbb    -0.0862   -11.563    -4.126    -3.857  0.8532 -0.5215  0.0054
              Bcc     0.1761    23.626     8.430     7.881  0.0114  0.0290  0.9995
 
              Baa    -0.0627    -8.416    -3.003    -2.807 -0.0167 -0.0526  0.9985
     5 C(13)  Bbb     0.0255     3.420     1.220     1.141  0.5655  0.8231  0.0528
              Bcc     0.0372     4.996     1.783     1.666  0.8246 -0.5655 -0.0159
 
              Baa    -0.0863   -11.578    -4.131    -3.862 -0.1364  0.9884  0.0670
     6 C(13)  Bbb    -0.0803   -10.775    -3.845    -3.594  0.9904  0.1343  0.0340
              Bcc     0.1666    22.353     7.976     7.456 -0.0246 -0.0710  0.9972
 
              Baa    -0.0245    -3.282    -1.171    -1.095 -0.0160 -0.0712  0.9973
     7 C(13)  Bbb     0.0087     1.163     0.415     0.388  0.1823  0.9805  0.0729
              Bcc     0.0158     2.119     0.756     0.707  0.9831 -0.1829  0.0027
 
              Baa    -0.0233    -3.132    -1.118    -1.045  0.3690  0.9269  0.0688
     8 C(13)  Bbb    -0.0205    -2.745    -0.980    -0.916  0.9288 -0.3705  0.0097
              Bcc     0.0438     5.878     2.097     1.961 -0.0344 -0.0603  0.9976
 
              Baa    -0.0154    -2.060    -0.735    -0.687 -0.0367 -0.0625  0.9974
     9 C(13)  Bbb     0.0061     0.824     0.294     0.275  0.2266  0.9715  0.0692
              Bcc     0.0092     1.236     0.441     0.412  0.9733 -0.2285  0.0215
 
              Baa    -0.0322    -4.318    -1.541    -1.440  0.3529  0.9328  0.0730
    10 C(13)  Bbb    -0.0295    -3.965    -1.415    -1.323  0.9350 -0.3544  0.0085
              Bcc     0.0617     8.283     2.956     2.763 -0.0338 -0.0653  0.9973
 
              Baa    -0.0074    -0.996    -0.356    -0.332 -0.0326 -0.0649  0.9974
    11 C(13)  Bbb    -0.0018    -0.246    -0.088    -0.082  0.3234  0.9435  0.0720
              Bcc     0.0093     1.243     0.443     0.414  0.9457 -0.3249  0.0098
 
              Baa    -0.0272    -1.050    -0.375    -0.350  0.9505 -0.3106  0.0131
    12 N(14)  Bbb    -0.0210    -0.811    -0.289    -0.270  0.3089  0.9483  0.0723
              Bcc     0.0483     1.861     0.664     0.621 -0.0349 -0.0647  0.9973
 
              Baa    -0.0175    -2.342    -0.836    -0.781 -0.0381 -0.0608  0.9974
    13 C(13)  Bbb     0.0072     0.966     0.345     0.322  0.5038  0.8608  0.0717
              Bcc     0.0103     1.376     0.491     0.459  0.8630 -0.5053  0.0022
 
              Baa    -0.0234    -3.138    -1.120    -1.047  0.4602  0.8852  0.0673
    14 C(13)  Bbb    -0.0216    -2.901    -1.035    -0.968  0.8870 -0.4617  0.0068
              Bcc     0.0450     6.039     2.155     2.014 -0.0371 -0.0566  0.9977
 
              Baa    -0.0635    -2.449    -0.874    -0.817 -0.0080  0.9989 -0.0463
    15 N(14)  Bbb    -0.0530    -2.045    -0.730    -0.682  0.9995  0.0065 -0.0323
              Bcc     0.1165     4.494     1.603     1.499  0.0320  0.0466  0.9984
 
              Baa    -0.1085   -14.556    -5.194    -4.855  0.0140  0.0219  0.9997
    16 C(13)  Bbb     0.0477     6.398     2.283     2.134  0.7833  0.6211 -0.0246
              Bcc     0.0608     8.158     2.911     2.721 -0.6215  0.7834 -0.0084
 
              Baa    -0.2145   -28.790   -10.273    -9.603  0.0001  1.0000 -0.0000
    17 C(13)  Bbb    -0.2100   -28.186   -10.058    -9.402  1.0000 -0.0001  0.0011
              Bcc     0.4246    56.976    20.330    19.005 -0.0011  0.0000  1.0000
 
              Baa    -0.0054    -0.720    -0.257    -0.240  0.0000  1.0000  0.0002
    18 C(13)  Bbb     0.0011     0.154     0.055     0.051  0.9999 -0.0000 -0.0167
              Bcc     0.0042     0.566     0.202     0.189  0.0167 -0.0002  0.9999
 
              Baa    -0.0080    -1.070    -0.382    -0.357 -0.5989  0.0002  0.8008
    19 C(13)  Bbb    -0.0065    -0.874    -0.312    -0.292  0.0004  1.0000  0.0000
              Bcc     0.0145     1.944     0.694     0.648  0.8008 -0.0003  0.5989
 
              Baa    -0.0030    -0.397    -0.142    -0.132 -0.0001  1.0000  0.0001
    20 C(13)  Bbb    -0.0015    -0.201    -0.072    -0.067 -0.2085 -0.0001  0.9780
              Bcc     0.0045     0.597     0.213     0.199  0.9780  0.0000  0.2085
 
              Baa    -0.0010    -0.131    -0.047    -0.044 -0.0048 -0.0003  1.0000
    21 C(13)  Bbb    -0.0003    -0.044    -0.016    -0.015 -0.0000  1.0000  0.0003
              Bcc     0.0013     0.175     0.063     0.058  1.0000  0.0000  0.0048
 
              Baa    -0.0029    -0.392    -0.140    -0.131  0.0001  1.0000  0.0001
    22 C(13)  Bbb    -0.0014    -0.193    -0.069    -0.064  0.2084 -0.0001  0.9780
              Bcc     0.0044     0.585     0.209     0.195  0.9780 -0.0000 -0.2084
 
              Baa    -0.0079    -1.055    -0.376    -0.352  0.5880  0.0002  0.8089
    23 C(13)  Bbb    -0.0064    -0.857    -0.306    -0.286 -0.0004  1.0000 -0.0000
              Bcc     0.0142     1.912     0.682     0.638  0.8089  0.0003 -0.5880
 
              Baa    -0.1085   -14.557    -5.194    -4.856  0.0140 -0.0218  0.9997
    24 C(13)  Bbb     0.0477     6.398     2.283     2.134  0.7833 -0.6212 -0.0245
              Bcc     0.0608     8.159     2.911     2.721  0.6215  0.7834  0.0084
 
              Baa    -0.0704    -9.446    -3.371    -3.151  0.9978  0.0636 -0.0187
    25 C(13)  Bbb    -0.0694    -9.315    -3.324    -3.107 -0.0627  0.9971  0.0436
              Bcc     0.1398    18.761     6.694     6.258  0.0214 -0.0423  0.9989
 
              Baa    -0.0014    -0.194    -0.069    -0.065  0.7818  0.6229  0.0263
    26 C(13)  Bbb     0.0001     0.008     0.003     0.003 -0.0205 -0.0165  0.9997
              Bcc     0.0014     0.186     0.066     0.062 -0.6231  0.7821  0.0001
 
              Baa    -0.0717    -9.626    -3.435    -3.211  0.0340 -0.0436  0.9985
    27 C(13)  Bbb     0.0345     4.633     1.653     1.545 -0.1943  0.9797  0.0494
              Bcc     0.0372     4.993     1.781     1.665  0.9804  0.1957 -0.0248
 
              Baa    -0.0899   -12.064    -4.305    -4.024 -0.5214  0.8528  0.0305
    28 C(13)  Bbb    -0.0862   -11.564    -4.126    -3.857  0.8532  0.5215  0.0054
              Bcc     0.1761    23.628     8.431     7.882  0.0113 -0.0289  0.9995
 
              Baa    -0.0627    -8.416    -3.003    -2.807 -0.0169  0.0527  0.9985
    29 C(13)  Bbb     0.0255     3.420     1.220     1.141 -0.5654  0.8231 -0.0530
              Bcc     0.0372     4.996     1.783     1.667  0.8246  0.5654 -0.0159
 
              Baa    -0.0863   -11.579    -4.132    -3.862  0.1364  0.9884 -0.0671
    30 C(13)  Bbb    -0.0803   -10.776    -3.845    -3.595  0.9903 -0.1344  0.0341
              Bcc     0.1666    22.355     7.977     7.457 -0.0247  0.0711  0.9972
 
              Baa    -0.0245    -3.282    -1.171    -1.095 -0.0162  0.0713  0.9973
    31 C(13)  Bbb     0.0087     1.163     0.415     0.388 -0.1822  0.9805 -0.0731
              Bcc     0.0158     2.119     0.756     0.707  0.9831  0.1829  0.0029
 
              Baa    -0.0233    -3.133    -1.118    -1.045 -0.3689  0.9269 -0.0689
    32 C(13)  Bbb    -0.0205    -2.746    -0.980    -0.916  0.9288  0.3704  0.0098
              Bcc     0.0438     5.878     2.098     1.961 -0.0346  0.0604  0.9976
 
              Baa    -0.0154    -2.060    -0.735    -0.687 -0.0369  0.0626  0.9974
    33 C(13)  Bbb     0.0061     0.825     0.294     0.275 -0.2266  0.9715 -0.0693
              Bcc     0.0092     1.236     0.441     0.412  0.9733  0.2285  0.0217
 
              Baa    -0.0322    -4.318    -1.541    -1.440 -0.3529  0.9328 -0.0732
    34 C(13)  Bbb    -0.0296    -3.966    -1.415    -1.323  0.9350  0.3544  0.0085
              Bcc     0.0617     8.284     2.956     2.763 -0.0339  0.0654  0.9973
 
              Baa    -0.0074    -0.997    -0.356    -0.332 -0.0328  0.0649  0.9973
    35 C(13)  Bbb    -0.0018    -0.246    -0.088    -0.082 -0.3234  0.9435 -0.0721
              Bcc     0.0093     1.243     0.443     0.415  0.9457  0.3249  0.0100
 
              Baa    -0.0272    -1.050    -0.375    -0.350  0.9504  0.3106  0.0134
    36 N(14)  Bbb    -0.0210    -0.811    -0.289    -0.270 -0.3089  0.9483 -0.0725
              Bcc     0.0483     1.861     0.664     0.621 -0.0352  0.0647  0.9973
 
              Baa    -0.0175    -2.342    -0.836    -0.781 -0.0382  0.0609  0.9974
    37 C(13)  Bbb     0.0072     0.966     0.345     0.322 -0.5038  0.8608 -0.0719
              Bcc     0.0103     1.376     0.491     0.459  0.8630  0.5052  0.0022
 
              Baa    -0.0234    -3.138    -1.120    -1.047 -0.4602  0.8853 -0.0675
    38 C(13)  Bbb    -0.0216    -2.901    -1.035    -0.968  0.8870  0.4616  0.0069
              Bcc     0.0450     6.039     2.155     2.015 -0.0373  0.0567  0.9977
 
              Baa    -0.0635    -2.449    -0.874    -0.817  0.0081  0.9989  0.0462
    39 N(14)  Bbb    -0.0530    -2.045    -0.730    -0.682  0.9995 -0.0066 -0.0323
              Bcc     0.1165     4.494     1.604     1.499  0.0320 -0.0465  0.9984
 
              Baa    -0.0024    -0.406    -0.145    -0.135 -0.2039  0.0002  0.9790
    40 B(11)  Bbb     0.0008     0.134     0.048     0.045  0.9790  0.0010  0.2039
              Bcc     0.0016     0.272     0.097     0.091 -0.0009  1.0000 -0.0004
 
              Baa    -0.0090    -4.499    -1.605    -1.501 -0.1880 -0.0000  0.9822
    41 F(19)  Bbb    -0.0062    -3.105    -1.108    -1.036  0.0001  1.0000  0.0001
              Bcc     0.0151     7.604     2.713     2.536  0.9822 -0.0001  0.1880
 
              Baa    -0.0180    -9.027    -3.221    -3.011  0.0001  1.0000  0.0002
    42 F(19)  Bbb    -0.0159    -7.964    -2.842    -2.656  0.5122 -0.0002  0.8588
              Bcc     0.0338    16.991     6.063     5.668  0.8588 -0.0000 -0.5122
 
              Baa    -0.0021    -1.099    -0.392    -0.367  0.4172 -0.0053  0.9088
    43 H(1)   Bbb    -0.0006    -0.343    -0.122    -0.114 -0.4463  0.8699  0.2100
              Bcc     0.0027     1.442     0.515     0.481  0.7917  0.4932 -0.3606
 
              Baa    -0.0014    -0.722    -0.258    -0.241  0.7717 -0.5374 -0.3400
    44 H(1)   Bbb    -0.0013    -0.704    -0.251    -0.235  0.2960 -0.1697  0.9400
              Bcc     0.0027     1.426     0.509     0.476  0.5629  0.8261 -0.0281
 
              Baa    -0.0021    -1.108    -0.395    -0.369 -0.3588  0.0257  0.9330
    45 H(1)   Bbb    -0.0006    -0.321    -0.115    -0.107 -0.4607  0.8645 -0.2010
              Bcc     0.0027     1.429     0.510     0.477  0.8118  0.5020  0.2984
 
              Baa    -0.0028    -1.482    -0.529    -0.494 -0.0826  0.9845 -0.1548
    46 H(1)   Bbb    -0.0024    -1.299    -0.463    -0.433  0.0143  0.1564  0.9876
              Bcc     0.0052     2.781     0.992     0.928  0.9965  0.0793 -0.0270
 
              Baa    -0.0031    -1.672    -0.596    -0.558  0.4023  0.7247 -0.5595
    47 H(1)   Bbb    -0.0028    -1.513    -0.540    -0.505  0.2762  0.4866  0.8288
              Bcc     0.0060     3.184     1.136     1.062  0.8729 -0.4879 -0.0045
 
              Baa    -0.0093    -4.964    -1.771    -1.656  0.7207 -0.6928 -0.0240
    48 H(1)   Bbb    -0.0020    -1.060    -0.378    -0.354 -0.0128 -0.0479  0.9988
              Bcc     0.0113     6.024     2.150     2.009  0.6931  0.7195  0.0434
 
              Baa    -0.0014    -0.755    -0.269    -0.252 -0.0573 -0.0433  0.9974
    49 H(1)   Bbb    -0.0012    -0.639    -0.228    -0.213  0.7328 -0.6804  0.0126
              Bcc     0.0026     1.394     0.497     0.465  0.6781  0.7316  0.0707
 
              Baa    -0.0010    -0.509    -0.182    -0.170 -0.0342 -0.0605  0.9976
    50 H(1)   Bbb    -0.0003    -0.170    -0.061    -0.057  0.1797  0.9815  0.0657
              Bcc     0.0013     0.680     0.243     0.227  0.9831 -0.1815  0.0227
 
              Baa    -0.0010    -0.529    -0.189    -0.176 -0.0368 -0.0601  0.9975
    51 H(1)   Bbb    -0.0005    -0.265    -0.095    -0.088  0.6068  0.7917  0.0701
              Bcc     0.0015     0.794     0.283     0.265  0.7940 -0.6079 -0.0073
 
              Baa    -0.0021    -1.111    -0.397    -0.371  0.9839  0.1786  0.0078
    52 H(1)   Bbb    -0.0012    -0.657    -0.235    -0.219 -0.0026 -0.0296  0.9996
              Bcc     0.0033     1.769     0.631     0.590 -0.1788  0.9835  0.0287
 
              Baa    -0.0030    -1.594    -0.569    -0.532 -0.0002  1.0000  0.0002
    53 H(1)   Bbb    -0.0018    -0.934    -0.333    -0.312  0.8150  0.0003 -0.5795
              Bcc     0.0047     2.529     0.902     0.843  0.5795 -0.0001  0.8150
 
              Baa    -0.0007    -0.356    -0.127    -0.119 -0.0000  1.0000  0.0001
    54 H(1)   Bbb    -0.0006    -0.323    -0.115    -0.108 -0.4461 -0.0001  0.8950
              Bcc     0.0013     0.679     0.242     0.226  0.8950 -0.0000  0.4461
 
              Baa    -0.0004    -0.240    -0.086    -0.080 -0.0044  0.0007  1.0000
    55 H(1)   Bbb    -0.0004    -0.214    -0.076    -0.071  0.0000  1.0000 -0.0007
              Bcc     0.0009     0.454     0.162     0.152  1.0000  0.0000  0.0044
 
              Baa    -0.0007    -0.350    -0.125    -0.117  0.0001  1.0000  0.0002
    56 H(1)   Bbb    -0.0006    -0.325    -0.116    -0.108  0.4344 -0.0002  0.9007
              Bcc     0.0013     0.675     0.241     0.225  0.9007  0.0000 -0.4344
 
              Baa    -0.0029    -1.550    -0.553    -0.517  0.0002  1.0000  0.0002
    57 H(1)   Bbb    -0.0018    -0.950    -0.339    -0.317  0.8110 -0.0003  0.5851
              Bcc     0.0047     2.500     0.892     0.834 -0.5851 -0.0001  0.8110
 
              Baa    -0.0021    -1.100    -0.392    -0.367  0.4170  0.0052  0.9089
    58 H(1)   Bbb    -0.0006    -0.342    -0.122    -0.114  0.4464  0.8699 -0.2098
              Bcc     0.0027     1.442     0.515     0.481  0.7917 -0.4933 -0.3604
 
              Baa    -0.0021    -1.107    -0.395    -0.369 -0.3591 -0.0258  0.9329
    59 H(1)   Bbb    -0.0006    -0.322    -0.115    -0.107  0.4606  0.8645  0.2012
              Bcc     0.0027     1.429     0.510     0.477  0.8117 -0.5020  0.2986
 
              Baa    -0.0014    -0.722    -0.258    -0.241  0.7738  0.5386 -0.3334
    60 H(1)   Bbb    -0.0013    -0.704    -0.251    -0.235  0.2906  0.1658  0.9424
              Bcc     0.0027     1.426     0.509     0.476 -0.5628  0.8261  0.0282
 
              Baa    -0.0028    -1.482    -0.529    -0.494  0.0826  0.9844  0.1552
    61 H(1)   Bbb    -0.0024    -1.299    -0.464    -0.433  0.0142 -0.1569  0.9875
              Bcc     0.0052     2.781     0.992     0.928  0.9965 -0.0794 -0.0269
 
              Baa    -0.0031    -1.672    -0.596    -0.558 -0.4023  0.7248  0.5593
    62 H(1)   Bbb    -0.0028    -1.513    -0.540    -0.505  0.2761 -0.4864  0.8290
              Bcc     0.0060     3.185     1.136     1.062  0.8729  0.4879 -0.0044
 
              Baa    -0.0093    -4.965    -1.772    -1.656  0.7207  0.6928 -0.0240
    63 H(1)   Bbb    -0.0020    -1.060    -0.378    -0.354 -0.0130  0.0481  0.9988
              Bcc     0.0113     6.025     2.150     2.010 -0.6931  0.7195 -0.0437
 
              Baa    -0.0014    -0.755    -0.269    -0.252 -0.0571  0.0437  0.9974
    64 H(1)   Bbb    -0.0012    -0.639    -0.228    -0.213  0.7328  0.6803  0.0121
              Bcc     0.0026     1.394     0.497     0.465 -0.6781  0.7316 -0.0709
 
              Baa    -0.0010    -0.509    -0.182    -0.170 -0.0344  0.0607  0.9976
    65 H(1)   Bbb    -0.0003    -0.170    -0.061    -0.057 -0.1796  0.9815 -0.0659
              Bcc     0.0013     0.680     0.243     0.227  0.9831  0.1815  0.0228
 
              Baa    -0.0010    -0.529    -0.189    -0.176 -0.0369  0.0602  0.9975
    66 H(1)   Bbb    -0.0005    -0.265    -0.095    -0.088 -0.6068  0.7917 -0.0702
              Bcc     0.0015     0.794     0.283     0.265  0.7940  0.6079 -0.0073
 
              Baa    -0.0021    -1.112    -0.397    -0.371  0.9839 -0.1786  0.0080
    67 H(1)   Bbb    -0.0012    -0.657    -0.235    -0.219 -0.0027  0.0297  0.9996
              Bcc     0.0033     1.769     0.631     0.590  0.1788  0.9835 -0.0287
 

 ---------------------------------------------------------------------------------

 No NMR shielding tensors so no spin-rotation constants.
 Leave Link  601 at Fri Nov  7 17:51:49 2025, MaxMem= 30870077440 cpu:             172.9 elap:               3.0
 (Enter /public/software/gauss/g16/l9999.exe)
 1\1\GINC-CU015\SP\UM062X\def2TZVPP\C35H25B1F2N4(1-,2)\BAIDING\07-Nov-2
 025\0\\#p M062X/DEF2TZVPP scrf=(solvent=water) em=GD3\\Energy calculat
 ion for M100036283_reduced\\-1,2\C,0,-4.598406,3.116619,0.122538\C,0,-
 3.194224,2.587408,0.07376\C,0,-2.05771,3.38466,0.07709\C,0,-0.911656,2
 .558429,0.040835\C,0,0.46665,2.926268,0.045359\C,0,0.936433,4.210377,-
 0.021643\C,0,2.326099,4.612474,-0.000417\C,0,2.640996,5.99276,-0.07904
 5\C,0,3.949251,6.445116,-0.064182\C,0,5.01005,5.521461,0.030645\C,0,6.
 359497,5.974157,0.04763\N,0,7.467603,6.345822,0.061569\C,0,4.721463,4.
 141777,0.108844\C,0,3.410431,3.701481,0.093687\N,0,-1.345792,1.240804,
 0.020202\C,0,-2.73587,1.225442,0.033101\C,0,-3.446651,-0.000048,0.0241
 02\C,0,-4.942131,-0.000061,0.019888\C,0,-5.653369,-0.000149,-1.189889\
 C,0,-7.05015,-0.000147,-1.197062\C,0,-7.757565,-0.000065,0.007474\C,0,
 -7.060693,0.000015,1.218168\C,0,-5.664114,0.000019,1.22329\C,0,-2.7358
 32,-1.225509,0.033004\C,0,-3.194152,-2.587499,0.073481\C,0,-4.598319,-
 3.116748,0.122197\C,0,-2.057617,-3.384719,0.076645\C,0,-0.911582,-2.55
 8446,0.040621\C,0,0.466731,-2.926258,0.045252\C,0,0.936553,-4.210346,-
 0.021916\C,0,2.326223,-4.612418,-0.000537\C,0,2.64116,-5.99269,-0.0792
 6\C,0,3.949421,-6.445022,-0.064234\C,0,5.010189,-5.521355,0.030843\C,0
 ,6.359643,-5.974023,0.047982\N,0,7.467746,-6.345683,0.062243\C,0,4.721
 561,-4.141685,0.109135\C,0,3.410523,-3.701413,0.093813\N,0,-1.345749,-
 1.240832,0.020175\B,0,-0.467987,0.000005,-0.226854\F,0,0.639318,0.0000
 09,0.65618\F,0,0.036335,0.000043,-1.546926\H,0,-5.138327,2.785719,1.01
 5783\H,0,-4.577096,4.210419,0.13128\H,0,-5.193546,2.800352,-0.74023\H,
 0,-2.047772,4.466013,0.122927\H,0,1.174075,2.107694,0.121026\H,0,0.221
 497,5.027011,-0.099959\H,0,1.830368,6.712034,-0.152422\H,0,4.164289,7.
 506897,-0.124967\H,0,5.535984,3.428462,0.181373\H,0,3.219672,2.635548,
 0.154854\H,0,-5.106687,-0.00021,-2.128503\H,0,-7.584571,-0.000211,-2.1
 42707\H,0,-8.843604,-0.000063,0.002693\H,0,-7.603445,0.000076,2.159052
 \H,0,-5.125689,0.00008,2.166627\H,0,-5.138467,-2.785442,1.015145\H,0,-
 5.193265,-2.800917,-0.740875\H,0,-4.576969,-4.210543,0.131443\H,0,-2.0
 4765,-4.466079,0.122305\H,0,1.174127,-2.107682,0.121146\H,0,0.221644,-
 5.026981,-0.100475\H,0,1.830558,-6.711972,-0.152841\H,0,4.16449,-7.506
 793,-0.125092\H,0,5.536057,-3.42836,0.18185\H,0,3.219738,-2.635487,0.1
 55038\\Version=ES64L-G16RevA.03\State=2-A\HF=-1792.6170033\S2=0.811046
 \S2-1=0.\S2A=0.752734\RMSD=6.396e-09\Dipole=-6.7875605,-0.0000608,0.41
 42951\Quadrupole=-44.8125629,2.2270847,42.5854782,0.0003364,-1.0139566
 ,0.0075021\PG=C01 [X(C35H25B1F2N4)]\\@


 E PUR SI MUOVE    -- GALILEO GALILEI
 Job cpu time:       1 days  0 hours 37 minutes 44.5 seconds.
 Elapsed time:       0 days  0 hours 23 minutes 22.9 seconds.
 File lengths (MBytes):  RWF=   2950 Int=      0 D2E=      0 Chk=    191 Scr=      1
 Normal termination of Gaussian 16 at Fri Nov  7 17:51:50 2025.
