 Entering Gaussian System, Link 0=g16
 Input=M100033921_sp.gjf
 Output=M100033921_sp.log
 Initial command:
 /public/software/gauss/g16/l1.exe "/public/home/baiding/1101_v2_sp/tmp_M100033921_sp_1568608/Gau-4166141.inp" -scrdir="/public/home/baiding/1101_v2_sp/tmp_M100033921_sp_1568608/"
 Entering Link 1 = /public/software/gauss/g16/l1.exe PID=   4166142.
  
 Copyright (c) 1988,1990,1992,1993,1995,1998,2003,2009,2016,
            Gaussian, Inc.  All Rights Reserved.
  
 This is part of the Gaussian(R) 16 program.  It is based on
 the Gaussian(R) 09 system (copyright 2009, Gaussian, Inc.),
 the Gaussian(R) 03 system (copyright 2003, Gaussian, Inc.),
 the Gaussian(R) 98 system (copyright 1998, Gaussian, Inc.),
 the Gaussian(R) 94 system (copyright 1995, Gaussian, Inc.),
 the Gaussian 92(TM) system (copyright 1992, Gaussian, Inc.),
 the Gaussian 90(TM) system (copyright 1990, Gaussian, Inc.),
 the Gaussian 88(TM) system (copyright 1988, Gaussian, Inc.),
 the Gaussian 86(TM) system (copyright 1986, Carnegie Mellon
 University), and the Gaussian 82(TM) system (copyright 1983,
 Carnegie Mellon University). Gaussian is a federally registered
 trademark of Gaussian, Inc.
  
 This software contains proprietary and confidential information,
 including trade secrets, belonging to Gaussian, Inc.
  
 This software is provided under written license and may be
 used, copied, transmitted, or stored only in accord with that
 written license.
  
 The following legend is applicable only to US Government
 contracts under FAR:
  
                    RESTRICTED RIGHTS LEGEND
  
 Use, reproduction and disclosure by the US Government is
 subject to restrictions as set forth in subparagraphs (a)
 and (c) of the Commercial Computer Software - Restricted
 Rights clause in FAR 52.227-19.
  
 Gaussian, Inc.
 340 Quinnipiac St., Bldg. 40, Wallingford CT 06492
  
  
 ---------------------------------------------------------------
 Warning -- This program may not be used in any manner that
 competes with the business of Gaussian, Inc. or will provide
 assistance to any competitor of Gaussian, Inc.  The licensee
 of this program is prohibited from giving any competitor of
 Gaussian, Inc. access to this program.  By using this program,
 the user acknowledges that Gaussian, Inc. is engaged in the
 business of creating and licensing software in the field of
 computational chemistry and represents and warrants to the
 licensee that it is not a competitor of Gaussian, Inc. and that
 it will not use this program in any manner prohibited above.
 ---------------------------------------------------------------
  

 Cite this work as:
 Gaussian 16, Revision A.03,
 M. J. Frisch, G. W. Trucks, H. B. Schlegel, G. E. Scuseria, 
 M. A. Robb, J. R. Cheeseman, G. Scalmani, V. Barone, 
 G. A. Petersson, H. Nakatsuji, X. Li, M. Caricato, A. V. Marenich, 
 J. Bloino, B. G. Janesko, R. Gomperts, B. Mennucci, H. P. Hratchian, 
 J. V. Ortiz, A. F. Izmaylov, J. L. Sonnenberg, D. Williams-Young, 
 F. Ding, F. Lipparini, F. Egidi, J. Goings, B. Peng, A. Petrone, 
 T. Henderson, D. Ranasinghe, V. G. Zakrzewski, J. Gao, N. Rega, 
 G. Zheng, W. Liang, M. Hada, M. Ehara, K. Toyota, R. Fukuda, 
 J. Hasegawa, M. Ishida, T. Nakajima, Y. Honda, O. Kitao, H. Nakai, 
 T. Vreven, K. Throssell, J. A. Montgomery, Jr., J. E. Peralta, 
 F. Ogliaro, M. J. Bearpark, J. J. Heyd, E. N. Brothers, K. N. Kudin, 
 V. N. Staroverov, T. A. Keith, R. Kobayashi, J. Normand, 
 K. Raghavachari, A. P. Rendell, J. C. Burant, S. S. Iyengar, 
 J. Tomasi, M. Cossi, J. M. Millam, M. Klene, C. Adamo, R. Cammi, 
 J. W. Ochterski, R. L. Martin, K. Morokuma, O. Farkas, 
 J. B. Foresman, and D. J. Fox, Gaussian, Inc., Wallingford CT, 2016.
 
 ******************************************
 Gaussian 16:  ES64L-G16RevA.03 25-Dec-2016
                 6-Nov-2025 
 ******************************************
 %nprocshared=64
 Will use up to   64 processors via shared memory.
 %mem=230GB
 %chk=M100033921_sp.chk
 ----------------------------------------------
 #p M062X/DEF2TZVPP scrf=(solvent=water) em=GD3
 ----------------------------------------------
 1/38=1,172=1/1;
 2/12=2,17=6,18=5,40=1/2;
 3/5=44,7=202,11=2,25=1,30=1,70=2201,72=1,74=-55,124=31/1,2,3;
 4//1;
 5/5=2,38=5,53=1/2;
 6/7=2,8=2,9=2,10=2,28=1/1;
 99/5=1,9=1/99;
 Leave Link    1 at Thu Nov  6 17:25:45 2025, MaxMem= 30870077440 cpu:              19.8 elap:               0.3
 (Enter /public/software/gauss/g16/l101.exe)
 ---------------------------------
 Energy calculation for M100033921
 ---------------------------------
 Symbolic Z-matrix:
 Charge =  0 Multiplicity = 1
 C                     6.04307  -5.2211   -0.59688 
 O                     5.53473  -4.28246   0.35854 
 C                     4.23055  -3.89264   0.24917 
 C                     3.34842  -4.34579  -0.74041 
 C                     2.0345   -3.8819   -0.75103 
 C                     1.57686  -2.95352   0.19817 
 C                     0.17276  -2.52059   0.16208 
 C                    -0.97504  -3.36016   0.1359 
 Cl                   -0.95578  -5.09692   0.22929 
 C                    -2.11077  -2.57594   0.10533 
 C                    -1.65868  -1.23649   0.08184 
 C                    -2.39935  -0.04741   0.00313 
 C                    -3.8834   -0.10443  -0.03845 
 C                    -4.53499  -0.81422  -1.06163 
 C                    -5.92279  -0.86986  -1.10897 
 C                    -6.67721  -0.21832  -0.11954 
 C                    -8.10642  -0.27775  -0.16014 
 N                    -9.27082  -0.32622  -0.1933 
 C                    -6.03659   0.49049   0.90991 
 C                    -4.64831   0.54839   0.94315 
 C                    -1.74473   1.19255  -0.03758 
 C                    -2.291     2.49657  -0.06422 
 C                    -1.21526   3.3605   -0.0342 
 Cl                   -1.32119   5.09521  -0.10687 
 C                    -0.00849   2.606    -0.0219 
 C                     1.35965   3.14096   0.00177 
 C                     1.6997    4.1224    0.95593 
 C                     2.97012   4.67545   0.98877 
 C                     3.93707   4.27518   0.05243 
 O                     5.15496   4.88284   0.15881 
 C                     6.17855   4.51436  -0.77342 
 C                     3.61447   3.30953  -0.90971 
 C                     2.33757   2.75138  -0.92712 
 N                    -0.35164   1.28839  -0.03427 
 B                     0.62049   0.05911   0.02669 
 F                     1.37654  -0.03817  -1.14199 
 F                     1.44443   0.20674   1.13927 
 N                    -0.26375  -1.2311    0.14137 
 C                     2.47709  -2.51239   1.18832 
 C                     3.78316  -2.97703   1.21502 
 H                     5.99338  -4.81831  -1.61393 
 H                     7.08526  -5.387    -0.32235 
 H                     5.4977   -6.16948  -0.5497 
 H                     3.67031  -5.04836  -1.49879 
 H                     1.36271  -4.23245  -1.52736 
 H                    -3.13737  -2.90814   0.11021 
 H                    -3.95234  -1.30612  -1.83227 
 H                    -6.42303  -1.40962  -1.9051 
 H                    -6.62474   0.98526   1.67462 
 H                    -4.15349   1.08368   1.74556 
 H                    -3.33784   2.75477  -0.10792 
 H                     0.96757   4.43498   1.69253 
 H                     3.23498   5.41881   1.73346 
 H                     5.87823   4.74057  -1.80186 
 H                     7.04942   5.11476  -0.50858 
 H                     6.42838   3.45164  -0.68836 
 H                     4.34109   2.99188  -1.64714 
 H                     2.09921   2.0084   -1.67659 
 H                     2.14596  -1.80964   1.94114 
 H                     4.47466  -2.64521   1.98267 
 
 ITRead=  0  0  0  0  0  0  0  0  0  0  0  0  0  0  0  0  0  0  0  0
 ITRead=  0  0  0  0  0  0  0  0  0  0  0  0  0  0  0  0  0  0  0  0
 ITRead=  0  0  0  0  0  0  0  0  0  0  0  0  0  0  0  0  0  0  0  0
 MicOpt= -1 -1 -1 -1 -1 -1 -1 -1 -1 -1 -1 -1 -1 -1 -1 -1 -1 -1 -1 -1
 MicOpt= -1 -1 -1 -1 -1 -1 -1 -1 -1 -1 -1 -1 -1 -1 -1 -1 -1 -1 -1 -1
 MicOpt= -1 -1 -1 -1 -1 -1 -1 -1 -1 -1 -1 -1 -1 -1 -1 -1 -1 -1 -1 -1
 NAtoms=     60 NQM=       60 NQMF=       0 NMMI=      0 NMMIF=      0
                NMic=       0 NMicF=      0.
                    Isotopes and Nuclear Properties:
 (Nuclear quadrupole moments (NQMom) in fm**2, nuclear magnetic moments (NMagM)
  in nuclear magnetons)

  Atom         1           2           3           4           5           6           7           8           9          10
 IAtWgt=          12          16          12          12          12          12          12          12          35          12
 AtmWgt=  12.0000000  15.9949146  12.0000000  12.0000000  12.0000000  12.0000000  12.0000000  12.0000000  34.9688527  12.0000000
 NucSpn=           0           0           0           0           0           0           0           0           3           0
 AtZEff=  -0.0000000  -0.0000000  -0.0000000  -0.0000000  -0.0000000  -0.0000000  -0.0000000  -0.0000000  -0.0000000  -0.0000000
 NQMom=    0.0000000   0.0000000   0.0000000   0.0000000   0.0000000   0.0000000   0.0000000   0.0000000  -8.1650000   0.0000000
 NMagM=    0.0000000   0.0000000   0.0000000   0.0000000   0.0000000   0.0000000   0.0000000   0.0000000   0.8218740   0.0000000
 AtZNuc=   6.0000000   8.0000000   6.0000000   6.0000000   6.0000000   6.0000000   6.0000000   6.0000000  17.0000000   6.0000000

  Atom        11          12          13          14          15          16          17          18          19          20
 IAtWgt=          12          12          12          12          12          12          12          14          12          12
 AtmWgt=  12.0000000  12.0000000  12.0000000  12.0000000  12.0000000  12.0000000  12.0000000  14.0030740  12.0000000  12.0000000
 NucSpn=           0           0           0           0           0           0           0           2           0           0
 AtZEff=  -0.0000000  -0.0000000  -0.0000000  -0.0000000  -0.0000000  -0.0000000  -0.0000000  -0.0000000  -0.0000000  -0.0000000
 NQMom=    0.0000000   0.0000000   0.0000000   0.0000000   0.0000000   0.0000000   0.0000000   2.0440000   0.0000000   0.0000000
 NMagM=    0.0000000   0.0000000   0.0000000   0.0000000   0.0000000   0.0000000   0.0000000   0.4037610   0.0000000   0.0000000
 AtZNuc=   6.0000000   6.0000000   6.0000000   6.0000000   6.0000000   6.0000000   6.0000000   7.0000000   6.0000000   6.0000000

  Atom        21          22          23          24          25          26          27          28          29          30
 IAtWgt=          12          12          12          35          12          12          12          12          12          16
 AtmWgt=  12.0000000  12.0000000  12.0000000  34.9688527  12.0000000  12.0000000  12.0000000  12.0000000  12.0000000  15.9949146
 NucSpn=           0           0           0           3           0           0           0           0           0           0
 AtZEff=  -0.0000000  -0.0000000  -0.0000000  -0.0000000  -0.0000000  -0.0000000  -0.0000000  -0.0000000  -0.0000000  -0.0000000
 NQMom=    0.0000000   0.0000000   0.0000000  -8.1650000   0.0000000   0.0000000   0.0000000   0.0000000   0.0000000   0.0000000
 NMagM=    0.0000000   0.0000000   0.0000000   0.8218740   0.0000000   0.0000000   0.0000000   0.0000000   0.0000000   0.0000000
 AtZNuc=   6.0000000   6.0000000   6.0000000  17.0000000   6.0000000   6.0000000   6.0000000   6.0000000   6.0000000   8.0000000

  Atom        31          32          33          34          35          36          37          38          39          40
 IAtWgt=          12          12          12          14          11          19          19          14          12          12
 AtmWgt=  12.0000000  12.0000000  12.0000000  14.0030740  11.0093053  18.9984033  18.9984033  14.0030740  12.0000000  12.0000000
 NucSpn=           0           0           0           2           3           1           1           2           0           0
 AtZEff=  -0.0000000  -0.0000000  -0.0000000  -0.0000000  -0.0000000  -0.0000000  -0.0000000  -0.0000000  -0.0000000  -0.0000000
 NQMom=    0.0000000   0.0000000   0.0000000   2.0440000   4.0590000   0.0000000   0.0000000   2.0440000   0.0000000   0.0000000
 NMagM=    0.0000000   0.0000000   0.0000000   0.4037610   2.6886370   2.6288670   2.6288670   0.4037610   0.0000000   0.0000000
 AtZNuc=   6.0000000   6.0000000   6.0000000   7.0000000   5.0000000   9.0000000   9.0000000   7.0000000   6.0000000   6.0000000

  Atom        41          42          43          44          45          46          47          48          49          50
 IAtWgt=           1           1           1           1           1           1           1           1           1           1
 AtmWgt=   1.0078250   1.0078250   1.0078250   1.0078250   1.0078250   1.0078250   1.0078250   1.0078250   1.0078250   1.0078250
 NucSpn=           1           1           1           1           1           1           1           1           1           1
 AtZEff=  -0.0000000  -0.0000000  -0.0000000  -0.0000000  -0.0000000  -0.0000000  -0.0000000  -0.0000000  -0.0000000  -0.0000000
 NQMom=    0.0000000   0.0000000   0.0000000   0.0000000   0.0000000   0.0000000   0.0000000   0.0000000   0.0000000   0.0000000
 NMagM=    2.7928460   2.7928460   2.7928460   2.7928460   2.7928460   2.7928460   2.7928460   2.7928460   2.7928460   2.7928460
 AtZNuc=   1.0000000   1.0000000   1.0000000   1.0000000   1.0000000   1.0000000   1.0000000   1.0000000   1.0000000   1.0000000

  Atom        51          52          53          54          55          56          57          58          59          60
 IAtWgt=           1           1           1           1           1           1           1           1           1           1
 AtmWgt=   1.0078250   1.0078250   1.0078250   1.0078250   1.0078250   1.0078250   1.0078250   1.0078250   1.0078250   1.0078250
 NucSpn=           1           1           1           1           1           1           1           1           1           1
 AtZEff=  -0.0000000  -0.0000000  -0.0000000  -0.0000000  -0.0000000  -0.0000000  -0.0000000  -0.0000000  -0.0000000  -0.0000000
 NQMom=    0.0000000   0.0000000   0.0000000   0.0000000   0.0000000   0.0000000   0.0000000   0.0000000   0.0000000   0.0000000
 NMagM=    2.7928460   2.7928460   2.7928460   2.7928460   2.7928460   2.7928460   2.7928460   2.7928460   2.7928460   2.7928460
 AtZNuc=   1.0000000   1.0000000   1.0000000   1.0000000   1.0000000   1.0000000   1.0000000   1.0000000   1.0000000   1.0000000
 Leave Link  101 at Thu Nov  6 17:25:45 2025, MaxMem= 30870077440 cpu:               3.7 elap:               0.1
 (Enter /public/software/gauss/g16/l202.exe)
 Stoichiometry    C30H20BCl2F2N3O2
 Framework group  C1[X(C30H20BCl2F2N3O2)]
 Deg. of freedom   174
 Full point group                 C1      NOp   1
 Largest Abelian subgroup         C1      NOp   1
 Largest concise Abelian subgroup C1      NOp   1
                         Standard orientation:                         
 ---------------------------------------------------------------------
 Center     Atomic      Atomic             Coordinates (Angstroms)
 Number     Number       Type             X           Y           Z
 ---------------------------------------------------------------------
      1          6           0        6.043072   -5.221101   -0.596881
      2          8           0        5.534726   -4.282464    0.358535
      3          6           0        4.230551   -3.892636    0.249171
      4          6           0        3.348424   -4.345786   -0.740405
      5          6           0        2.034502   -3.881896   -0.751025
      6          6           0        1.576860   -2.953516    0.198167
      7          6           0        0.172764   -2.520591    0.162077
      8          6           0       -0.975042   -3.360163    0.135899
      9         17           0       -0.955782   -5.096924    0.229286
     10          6           0       -2.110766   -2.575935    0.105333
     11          6           0       -1.658675   -1.236491    0.081840
     12          6           0       -2.399345   -0.047409    0.003125
     13          6           0       -3.883403   -0.104426   -0.038453
     14          6           0       -4.534989   -0.814215   -1.061634
     15          6           0       -5.922789   -0.869856   -1.108970
     16          6           0       -6.677210   -0.218320   -0.119540
     17          6           0       -8.106419   -0.277754   -0.160139
     18          7           0       -9.270820   -0.326216   -0.193297
     19          6           0       -6.036587    0.490487    0.909912
     20          6           0       -4.648314    0.548391    0.943151
     21          6           0       -1.744728    1.192553   -0.037578
     22          6           0       -2.291000    2.496574   -0.064219
     23          6           0       -1.215256    3.360502   -0.034195
     24         17           0       -1.321188    5.095211   -0.106867
     25          6           0       -0.008493    2.605999   -0.021899
     26          6           0        1.359648    3.140962    0.001769
     27          6           0        1.699703    4.122400    0.955930
     28          6           0        2.970124    4.675448    0.988773
     29          6           0        3.937073    4.275181    0.052431
     30          8           0        5.154959    4.882843    0.158807
     31          6           0        6.178551    4.514361   -0.773417
     32          6           0        3.614470    3.309525   -0.909712
     33          6           0        2.337566    2.751380   -0.927119
     34          7           0       -0.351639    1.288392   -0.034273
     35          5           0        0.620491    0.059107    0.026686
     36          9           0        1.376543   -0.038165   -1.141992
     37          9           0        1.444427    0.206739    1.139271
     38          7           0       -0.263751   -1.231103    0.141370
     39          6           0        2.477087   -2.512392    1.188316
     40          6           0        3.783159   -2.977033    1.215018
     41          1           0        5.993377   -4.818307   -1.613926
     42          1           0        7.085256   -5.387004   -0.322353
     43          1           0        5.497697   -6.169477   -0.549698
     44          1           0        3.670312   -5.048364   -1.498791
     45          1           0        1.362706   -4.232452   -1.527362
     46          1           0       -3.137371   -2.908136    0.110206
     47          1           0       -3.952335   -1.306116   -1.832274
     48          1           0       -6.423026   -1.409616   -1.905095
     49          1           0       -6.624735    0.985261    1.674624
     50          1           0       -4.153492    1.083677    1.745559
     51          1           0       -3.337837    2.754768   -0.107924
     52          1           0        0.967573    4.434976    1.692525
     53          1           0        3.234979    5.418807    1.733462
     54          1           0        5.878226    4.740568   -1.801861
     55          1           0        7.049423    5.114759   -0.508576
     56          1           0        6.428376    3.451635   -0.688361
     57          1           0        4.341085    2.991880   -1.647137
     58          1           0        2.099213    2.008400   -1.676589
     59          1           0        2.145955   -1.809636    1.941144
     60          1           0        4.474665   -2.645210    1.982666
 ---------------------------------------------------------------------
 Rotational constants (GHZ):           0.0815300           0.0608952           0.0361167
 Leave Link  202 at Thu Nov  6 17:25:45 2025, MaxMem= 30870077440 cpu:               0.2 elap:               0.0
 (Enter /public/software/gauss/g16/l301.exe)
 Standard basis: def2TZVPP (5D, 7F)
 Ernie: Thresh=  0.10000D-02 Tol=  0.10000D-05 Strict=F.
 There are  1764 symmetry adapted cartesian basis functions of A   symmetry.
 There are  1542 symmetry adapted basis functions of A   symmetry.
  1542 basis functions,  2416 primitive gaussians,  1764 cartesian basis functions
   147 alpha electrons      147 beta electrons
       nuclear repulsion energy      4632.5076904632 Hartrees.
 IExCor= 4336 DFT=T Ex+Corr=M062X ExCW=0 ScaHFX=  0.540000
 ScaDFX=  1.000000  1.000000  1.000000  1.000000 ScalE2=  1.000000  1.000000
 IRadAn=      5 IRanWt=     -1 IRanGd=            0 ICorTp=0 IEmpDi=131
 NAtoms=   60 NActive=   60 NUniq=   60 SFac= 1.00D+00 NAtFMM=   60 NAOKFM=T Big=T
 Integral buffers will be    131072 words long.
 Raffenetti 2 integral format.
 Two-electron integral symmetry is turned on.
 R6Disp:  Grimme-D3 Dispersion energy=       -0.0051414751 Hartrees.
 Nuclear repulsion after empirical dispersion term =     4632.5025489881 Hartrees.
 ------------------------------------------------------------------------------
 Polarizable Continuum Model (PCM)
 =================================
 Model                : PCM.
 Atomic radii         : UFF (Universal Force Field).
 Polarization charges : Total charges.
 Charge compensation  : None.
 Solution method      : On-the-fly selection.
 Cavity type          : Scaled VdW (van der Waals Surface) (Alpha=1.100).
 Cavity algorithm     : GePol (No added spheres)
                        Default sphere list used, NSphG=   60.
                        Lebedev-Laikov grids with approx.  5.0 points / Ang**2.
                        Smoothing algorithm: York/Karplus (Gamma=1.0000).
                        Polarization charges: spherical gaussians, with
                                              point-specific exponents (IZeta= 3).
                        Self-potential: point-specific (ISelfS= 7).
                        Self-field    : sphere-specific E.n sum rule (ISelfD= 2).
 Solvent              : Water, Eps=  78.355300 Eps(inf)=   1.777849
 ------------------------------------------------------------------------------
 GePol: Number of generator spheres                  =      60
 GePol: Total number of spheres                      =      60
 GePol: Number of exposed spheres                    =      60 (100.00%)
 GePol: Number of points                             =    4613
 GePol: Average weight of points                     =       0.13
 GePol: Minimum weight of points                     =   0.62D-10
 GePol: Maximum weight of points                     =    0.21616
 GePol: Number of points with low weight             =     300
 GePol: Fraction of low-weight points (<1% of avg)   =       6.50%
 GePol: Cavity surface area                          =    608.878 Ang**2
 GePol: Cavity volume                                =    700.452 Ang**3
 Leave Link  301 at Thu Nov  6 17:25:45 2025, MaxMem= 30870077440 cpu:               3.7 elap:               0.1
 (Enter /public/software/gauss/g16/l302.exe)
 NPDir=0 NMtPBC=     1 NCelOv=     1 NCel=       1 NClECP=     1 NCelD=      1
         NCelK=      1 NCelE2=     1 NClLst=     1 CellRange=     0.0.
 One-electron integrals computed using PRISM.
 One-electron integral symmetry used in STVInt
   1 Symmetry operations used in ECPInt.
 ECPInt:  NShTT=  160461 NPrTT=  475791 LenC2=  111532 LenP2D=  222241.
 LDataN:  DoStor=T MaxTD1= 6 Len=  172
 NBasis=  1542 RedAO= T EigKep=  6.34D-06  NBF=  1542
 NBsUse=  1542 1.00D-06 EigRej= -1.00D+00 NBFU=  1542
 Precomputing XC quadrature grid using
 IXCGrd= 4 IRadAn=           5 IRanWt=          -1 IRanGd=           0 AccXCQ= 0.00D+00.
 Generated NRdTot=       0 NPtTot=           0 NUsed=           0 NTot=          32
 NSgBfM=  1620  1617  1617  1619  1620 MxSgAt=    60 MxSgA2=    60.
 Leave Link  302 at Thu Nov  6 17:25:51 2025, MaxMem= 30870077440 cpu:             378.4 elap:               5.9
 (Enter /public/software/gauss/g16/l303.exe)
 DipDrv:  MaxL=1.
 Leave Link  303 at Thu Nov  6 17:25:51 2025, MaxMem= 30870077440 cpu:              20.1 elap:               0.4
 (Enter /public/software/gauss/g16/l401.exe)
 ExpMin= 6.06D-02 ExpMax= 6.95D+04 ExpMxC= 2.37D+03 IAcc=3 IRadAn=         5 AccDes= 0.00D+00
 Harris functional with IExCor= 1009 and IRadAn=       5 diagonalized for initial guess.
 HarFok:  IExCor= 1009 AccDes= 0.00D+00 IRadAn=         5 IDoV= 1 UseB2=F ITyADJ=14
 ICtDFT=  3500011 ScaDFX=  1.000000  1.000000  1.000000  1.000000
 FoFCou: FMM=F IPFlag=           0 FMFlag=      100000 FMFlg1=        2001
         NFxFlg=           0 DoJE=T BraDBF=F KetDBF=T FulRan=T
         wScrn=  0.000000 ICntrl=       500 IOpCl=  0 I1Cent=   200000004 NGrid=           0
         NMat0=    1 NMatS0=      1 NMatT0=    0 NMatD0=    1 NMtDS0=    0 NMtDT0=    0
 Petite list used in FoFCou.
 Harris En= -2613.59454928144    
 JPrj=0 DoOrth=F DoCkMO=F.
 Leave Link  401 at Thu Nov  6 17:25:59 2025, MaxMem= 30870077440 cpu:             485.1 elap:               7.6
 (Enter /public/software/gauss/g16/l502.exe)
 Integral symmetry usage will be decided dynamically.
 Closed shell SCF:
 Using DIIS extrapolation, IDIIS=  1040.
 NGot= 30870077440 LenX= 30863726428 LenY= 30860612968
 Requested convergence on RMS density matrix=1.00D-08 within 128 cycles.
 Requested convergence on MAX density matrix=1.00D-06.
 Requested convergence on             energy=1.00D-06.
 No special actions if energy rises.
 Fock matrices will be formed incrementally for  20 cycles.

 Cycle   1  Pass 1  IDiag  1:
 FoFJK:  IHMeth= 1 ICntrl=       0 DoSepK=F KAlg= 0 I1Cent=           0 FoldK=F
 IRaf= 670000000 NMat=       1 IRICut=       1 DoRegI=T DoRafI=F ISym2E= 0 IDoP0=0 IntGTp=1.
 FoFCou: FMM=T IPFlag=           0 FMFlag=      100000 FMFlg1=        2001
         NFxFlg=           0 DoJE=F BraDBF=F KetDBF=F FulRan=T
         wScrn=  0.000000 ICntrl=         0 IOpCl=  0 I1Cent=           0 NGrid=           0
         NMat0=    1 NMatS0=      1 NMatT0=    0 NMatD0=    1 NMtDS0=    0 NMtDT0=    0
 Symmetry not used in FoFCou.
 FMM levels:  10  Number of levels for PrismC:   9
 Inv3:  Mode=1 IEnd=    63839307.
 Iteration    1 A*A^-1 deviation from unit magnitude is 1.15D-14 for    281.
 Iteration    1 A*A^-1 deviation from orthogonality  is 8.00D-15 for   3153    927.
 Iteration    1 A^-1*A deviation from unit magnitude is 1.15D-14 for    438.
 Iteration    1 A^-1*A deviation from orthogonality  is 5.11D-15 for   3004   1806.
 E= -2614.25074051824    
 DIIS: error= 1.35D-02 at cycle   1 NSaved=   1.
 NSaved= 1 IEnMin= 1 EnMin= -2614.25074051824     IErMin= 1 ErrMin= 1.35D-02
 ErrMax= 1.35D-02  0.00D+00 EMaxC= 1.00D-01 BMatC= 1.12D+00 BMatP= 1.12D+00
 IDIUse=3 WtCom= 8.65D-01 WtEn= 1.35D-01
 Coeff-Com:  0.100D+01
 Coeff-En:   0.100D+01
 Coeff:      0.100D+01
 Gap=     0.230 Goal=   None    Shift=    0.000
 GapD=    0.230 DampG=1.000 DampE=0.500 DampFc=0.5000 IDamp=-1.
 Damping current iteration by 5.00D-01
 RMSDP=1.66D-03 MaxDP=1.70D-01              OVMax= 2.68D-01

 Cycle   2  Pass 1  IDiag  1:
 RMSU=  8.30D-04    CP:  9.90D-01
 E= -2614.66491389597     Delta-E=       -0.414173377731 Rises=F Damp=T
 DIIS: error= 5.14D-03 at cycle   2 NSaved=   2.
 NSaved= 2 IEnMin= 2 EnMin= -2614.66491389597     IErMin= 2 ErrMin= 5.14D-03
 ErrMax= 5.14D-03  0.00D+00 EMaxC= 1.00D-01 BMatC= 1.17D-01 BMatP= 1.12D+00
 IDIUse=3 WtCom= 9.49D-01 WtEn= 5.14D-02
 Coeff-Com: -0.192D+00 0.119D+01
 Coeff-En:   0.000D+00 0.100D+01
 Coeff:     -0.183D+00 0.118D+01
 Gap=     0.153 Goal=   None    Shift=    0.000
 RMSDP=6.83D-04 MaxDP=4.64D-02 DE=-4.14D-01 OVMax= 1.08D-01

 Cycle   3  Pass 1  IDiag  1:
 RMSU=  6.55D-04    CP:  9.84D-01  1.23D+00
 E= -2615.02075691225     Delta-E=       -0.355843016278 Rises=F Damp=F
 DIIS: error= 6.15D-03 at cycle   3 NSaved=   3.
 NSaved= 3 IEnMin= 3 EnMin= -2615.02075691225     IErMin= 2 ErrMin= 5.14D-03
 ErrMax= 6.15D-03  0.00D+00 EMaxC= 1.00D-01 BMatC= 3.89D-02 BMatP= 1.17D-01
 IDIUse=3 WtCom= 9.39D-01 WtEn= 6.15D-02
 Coeff-Com: -0.146D+00 0.474D+00 0.672D+00
 Coeff-En:   0.000D+00 0.000D+00 0.100D+01
 Coeff:     -0.137D+00 0.445D+00 0.692D+00
 Gap=     0.150 Goal=   None    Shift=    0.000
 RMSDP=1.82D-04 MaxDP=1.96D-02 DE=-3.56D-01 OVMax= 5.64D-02

 Cycle   4  Pass 1  IDiag  1:
 RMSU=  1.75D-04    CP:  9.83D-01  1.26D+00  9.34D-01
 E= -2615.04324827579     Delta-E=       -0.022491363545 Rises=F Damp=F
 DIIS: error= 4.57D-03 at cycle   4 NSaved=   4.
 NSaved= 4 IEnMin= 4 EnMin= -2615.04324827579     IErMin= 4 ErrMin= 4.57D-03
 ErrMax= 4.57D-03  0.00D+00 EMaxC= 1.00D-01 BMatC= 1.26D-02 BMatP= 3.89D-02
 IDIUse=3 WtCom= 9.54D-01 WtEn= 4.57D-02
 Coeff-Com: -0.586D-01 0.143D+00 0.411D+00 0.505D+00
 Coeff-En:   0.000D+00 0.000D+00 0.247D+00 0.753D+00
 Coeff:     -0.559D-01 0.136D+00 0.403D+00 0.517D+00
 Gap=     0.151 Goal=   None    Shift=    0.000
 RMSDP=8.56D-05 MaxDP=1.38D-02 DE=-2.25D-02 OVMax= 2.76D-02

 Cycle   5  Pass 1  IDiag  1:
 RMSU=  6.06D-05    CP:  9.83D-01  1.27D+00  9.55D-01  6.66D-01
 E= -2615.05369933242     Delta-E=       -0.010451056625 Rises=F Damp=F
 DIIS: error= 1.10D-03 at cycle   5 NSaved=   5.
 NSaved= 5 IEnMin= 5 EnMin= -2615.05369933242     IErMin= 5 ErrMin= 1.10D-03
 ErrMax= 1.10D-03  0.00D+00 EMaxC= 1.00D-01 BMatC= 5.80D-04 BMatP= 1.26D-02
 IDIUse=3 WtCom= 9.89D-01 WtEn= 1.10D-02
 Coeff-Com: -0.175D-01 0.355D-01 0.157D+00 0.260D+00 0.565D+00
 Coeff-En:   0.000D+00 0.000D+00 0.000D+00 0.000D+00 0.100D+01
 Coeff:     -0.174D-01 0.351D-01 0.155D+00 0.257D+00 0.570D+00
 Gap=     0.152 Goal=   None    Shift=    0.000
 RMSDP=2.39D-05 MaxDP=3.35D-03 DE=-1.05D-02 OVMax= 6.32D-03

 Cycle   6  Pass 1  IDiag  1:
 RMSU=  2.19D-05    CP:  9.83D-01  1.27D+00  9.54D-01  6.74D-01  8.89D-01
 E= -2615.05417241304     Delta-E=       -0.000473080618 Rises=F Damp=F
 DIIS: error= 2.32D-04 at cycle   6 NSaved=   6.
 NSaved= 6 IEnMin= 6 EnMin= -2615.05417241304     IErMin= 6 ErrMin= 2.32D-04
 ErrMax= 2.32D-04  0.00D+00 EMaxC= 1.00D-01 BMatC= 4.72D-05 BMatP= 5.80D-04
 IDIUse=3 WtCom= 9.98D-01 WtEn= 2.32D-03
 Coeff-Com: -0.114D-02 0.127D-03 0.266D-01 0.583D-01 0.257D+00 0.659D+00
 Coeff-En:   0.000D+00 0.000D+00 0.000D+00 0.000D+00 0.000D+00 0.100D+01
 Coeff:     -0.113D-02 0.127D-03 0.266D-01 0.581D-01 0.257D+00 0.659D+00
 Gap=     0.152 Goal=   None    Shift=    0.000
 RMSDP=9.90D-06 MaxDP=1.59D-03 DE=-4.73D-04 OVMax= 2.53D-03

 Cycle   7  Pass 1  IDiag  1:
 RMSU=  7.75D-06    CP:  9.84D-01  1.27D+00  9.58D-01  6.80D-01  9.72D-01
                    CP:  1.06D+00
 E= -2615.05422196839     Delta-E=       -0.000049555350 Rises=F Damp=F
 DIIS: error= 3.79D-05 at cycle   7 NSaved=   7.
 NSaved= 7 IEnMin= 7 EnMin= -2615.05422196839     IErMin= 7 ErrMin= 3.79D-05
 ErrMax= 3.79D-05  0.00D+00 EMaxC= 1.00D-01 BMatC= 6.12D-06 BMatP= 4.72D-05
 IDIUse=1 WtCom= 1.00D+00 WtEn= 0.00D+00
 Coeff-Com:  0.238D-02-0.581D-02-0.128D-01-0.176D-01 0.148D-01 0.268D+00
 Coeff-Com:  0.751D+00
 Coeff:      0.238D-02-0.581D-02-0.128D-01-0.176D-01 0.148D-01 0.268D+00
 Coeff:      0.751D+00
 Gap=     0.152 Goal=   None    Shift=    0.000
 RMSDP=4.75D-06 MaxDP=6.44D-04 DE=-4.96D-05 OVMax= 1.16D-03

 Cycle   8  Pass 1  IDiag  1:
 RMSU=  2.37D-06    CP:  9.84D-01  1.27D+00  9.60D-01  6.81D-01  1.02D+00
                    CP:  1.16D+00  1.23D+00
 E= -2615.05422969973     Delta-E=       -0.000007731340 Rises=F Damp=F
 DIIS: error= 1.51D-05 at cycle   8 NSaved=   8.
 NSaved= 8 IEnMin= 8 EnMin= -2615.05422969973     IErMin= 8 ErrMin= 1.51D-05
 ErrMax= 1.51D-05  0.00D+00 EMaxC= 1.00D-01 BMatC= 1.20D-06 BMatP= 6.12D-06
 IDIUse=1 WtCom= 1.00D+00 WtEn= 0.00D+00
 Coeff-Com:  0.136D-02-0.287D-02-0.101D-01-0.184D-01-0.350D-01 0.257D-01
 Coeff-Com:  0.356D+00 0.683D+00
 Coeff:      0.136D-02-0.287D-02-0.101D-01-0.184D-01-0.350D-01 0.257D-01
 Coeff:      0.356D+00 0.683D+00
 Gap=     0.152 Goal=   None    Shift=    0.000
 RMSDP=2.02D-06 MaxDP=2.12D-04 DE=-7.73D-06 OVMax= 5.76D-04

 Cycle   9  Pass 1  IDiag  1:
 RMSU=  1.05D-06    CP:  9.84D-01  1.27D+00  9.60D-01  6.79D-01  1.03D+00
                    CP:  1.20D+00  1.33D+00  1.11D+00
 E= -2615.05423130820     Delta-E=       -0.000001608469 Rises=F Damp=F
 DIIS: error= 6.68D-06 at cycle   9 NSaved=   9.
 NSaved= 9 IEnMin= 9 EnMin= -2615.05423130820     IErMin= 9 ErrMin= 6.68D-06
 ErrMax= 6.68D-06  0.00D+00 EMaxC= 1.00D-01 BMatC= 1.05D-07 BMatP= 1.20D-06
 IDIUse=1 WtCom= 1.00D+00 WtEn= 0.00D+00
 Coeff-Com:  0.195D-03-0.321D-03-0.176D-02-0.424D-02-0.124D-01-0.176D-01
 Coeff-Com:  0.216D-01 0.233D+00 0.782D+00
 Coeff:      0.195D-03-0.321D-03-0.176D-02-0.424D-02-0.124D-01-0.176D-01
 Coeff:      0.216D-01 0.233D+00 0.782D+00
 Gap=     0.153 Goal=   None    Shift=    0.000
 RMSDP=6.13D-07 MaxDP=7.64D-05 DE=-1.61D-06 OVMax= 2.31D-04

 Cycle  10  Pass 1  IDiag  1:
 RMSU=  3.60D-07    CP:  9.84D-01  1.27D+00  9.61D-01  6.79D-01  1.04D+00
                    CP:  1.21D+00  1.36D+00  1.24D+00  1.10D+00
 E= -2615.05423146846     Delta-E=       -0.000000160265 Rises=F Damp=F
 DIIS: error= 1.83D-06 at cycle  10 NSaved=  10.
 NSaved=10 IEnMin=10 EnMin= -2615.05423146846     IErMin=10 ErrMin= 1.83D-06
 ErrMax= 1.83D-06  0.00D+00 EMaxC= 1.00D-01 BMatC= 2.02D-08 BMatP= 1.05D-07
 IDIUse=1 WtCom= 1.00D+00 WtEn= 0.00D+00
 Coeff-Com: -0.730D-04 0.195D-03 0.455D-03 0.291D-03-0.165D-02-0.120D-01
 Coeff-Com: -0.397D-01 0.168D-01 0.338D+00 0.698D+00
 Coeff:     -0.730D-04 0.195D-03 0.455D-03 0.291D-03-0.165D-02-0.120D-01
 Coeff:     -0.397D-01 0.168D-01 0.338D+00 0.698D+00
 Gap=     0.153 Goal=   None    Shift=    0.000
 RMSDP=2.93D-07 MaxDP=4.07D-05 DE=-1.60D-07 OVMax= 6.59D-05

 Cycle  11  Pass 1  IDiag  1:
 RMSU=  1.49D-07    CP:  9.84D-01  1.27D+00  9.61D-01  6.79D-01  1.04D+00
                    CP:  1.21D+00  1.38D+00  1.28D+00  1.21D+00  1.17D+00
 E= -2615.05423149443     Delta-E=       -0.000000025971 Rises=F Damp=F
 DIIS: error= 1.50D-06 at cycle  11 NSaved=  11.
 NSaved=11 IEnMin=11 EnMin= -2615.05423149443     IErMin=11 ErrMin= 1.50D-06
 ErrMax= 1.50D-06  0.00D+00 EMaxC= 1.00D-01 BMatC= 3.56D-09 BMatP= 2.02D-08
 IDIUse=1 WtCom= 1.00D+00 WtEn= 0.00D+00
 Coeff-Com: -0.628D-04 0.136D-03 0.550D-03 0.900D-03 0.142D-02-0.213D-02
 Coeff-Com: -0.217D-01-0.266D-01 0.279D-01 0.336D+00 0.683D+00
 Coeff:     -0.628D-04 0.136D-03 0.550D-03 0.900D-03 0.142D-02-0.213D-02
 Coeff:     -0.217D-01-0.266D-01 0.279D-01 0.336D+00 0.683D+00
 Gap=     0.153 Goal=   None    Shift=    0.000
 RMSDP=8.67D-08 MaxDP=1.32D-05 DE=-2.60D-08 OVMax= 3.28D-05

 Cycle  12  Pass 1  IDiag  1:
 RMSU=  6.37D-08    CP:  9.84D-01  1.27D+00  9.61D-01  6.79D-01  1.04D+00
                    CP:  1.21D+00  1.38D+00  1.29D+00  1.23D+00  1.28D+00
                    CP:  8.54D-01
 E= -2615.05423149881     Delta-E=       -0.000000004382 Rises=F Damp=F
 DIIS: error= 3.22D-07 at cycle  12 NSaved=  12.
 NSaved=12 IEnMin=12 EnMin= -2615.05423149881     IErMin=12 ErrMin= 3.22D-07
 ErrMax= 3.22D-07  0.00D+00 EMaxC= 1.00D-01 BMatC= 5.44D-10 BMatP= 3.56D-09
 IDIUse=1 WtCom= 1.00D+00 WtEn= 0.00D+00
 Coeff-Com: -0.194D-04 0.382D-04 0.206D-03 0.383D-03 0.844D-03 0.355D-03
 Coeff-Com: -0.614D-02-0.142D-01-0.294D-01 0.766D-01 0.340D+00 0.632D+00
 Coeff:     -0.194D-04 0.382D-04 0.206D-03 0.383D-03 0.844D-03 0.355D-03
 Coeff:     -0.614D-02-0.142D-01-0.294D-01 0.766D-01 0.340D+00 0.632D+00
 Gap=     0.153 Goal=   None    Shift=    0.000
 RMSDP=3.77D-08 MaxDP=5.84D-06 DE=-4.38D-09 OVMax= 7.95D-06

 Cycle  13  Pass 1  IDiag  1:
 RMSU=  2.46D-08    CP:  9.84D-01  1.27D+00  9.61D-01  6.79D-01  1.04D+00
                    CP:  1.21D+00  1.38D+00  1.30D+00  1.24D+00  1.32D+00
                    CP:  9.90D-01  8.89D-01
 E= -2615.05423149927     Delta-E=       -0.000000000461 Rises=F Damp=F
 DIIS: error= 1.08D-07 at cycle  13 NSaved=  13.
 NSaved=13 IEnMin=13 EnMin= -2615.05423149927     IErMin=13 ErrMin= 1.08D-07
 ErrMax= 1.08D-07  0.00D+00 EMaxC= 1.00D-01 BMatC= 5.51D-11 BMatP= 5.44D-10
 IDIUse=1 WtCom= 1.00D+00 WtEn= 0.00D+00
 Coeff-Com:  0.214D-05-0.596D-05-0.769D-06 0.126D-04 0.129D-03 0.525D-03
 Coeff-Com:  0.632D-03-0.125D-02-0.174D-01-0.209D-01 0.438D-01 0.264D+00
 Coeff-Com:  0.731D+00
 Coeff:      0.214D-05-0.596D-05-0.769D-06 0.126D-04 0.129D-03 0.525D-03
 Coeff:      0.632D-03-0.125D-02-0.174D-01-0.209D-01 0.438D-01 0.264D+00
 Coeff:      0.731D+00
 Gap=     0.153 Goal=   None    Shift=    0.000
 RMSDP=1.31D-08 MaxDP=1.62D-06 DE=-4.61D-10 OVMax= 4.07D-06

 Cycle  14  Pass 1  IDiag  1:
 RMSU=  8.26D-09    CP:  9.84D-01  1.27D+00  9.61D-01  6.79D-01  1.04D+00
                    CP:  1.21D+00  1.38D+00  1.30D+00  1.24D+00  1.33D+00
                    CP:  1.02D+00  9.99D-01  1.09D+00
 E= -2615.05423149961     Delta-E=       -0.000000000333 Rises=F Damp=F
 DIIS: error= 4.61D-08 at cycle  14 NSaved=  14.
 NSaved=14 IEnMin=14 EnMin= -2615.05423149961     IErMin=14 ErrMin= 4.61D-08
 ErrMax= 4.61D-08  0.00D+00 EMaxC= 1.00D-01 BMatC= 6.34D-12 BMatP= 5.51D-11
 IDIUse=1 WtCom= 1.00D+00 WtEn= 0.00D+00
 Coeff-Com:  0.294D-05-0.640D-05-0.244D-04-0.423D-04-0.477D-04 0.161D-03
 Coeff-Com:  0.861D-03 0.142D-02-0.207D-02-0.169D-01-0.269D-01 0.509D-03
 Coeff-Com:  0.258D+00 0.785D+00
 Coeff:      0.294D-05-0.640D-05-0.244D-04-0.423D-04-0.477D-04 0.161D-03
 Coeff:      0.861D-03 0.142D-02-0.207D-02-0.169D-01-0.269D-01 0.509D-03
 Coeff:      0.258D+00 0.785D+00
 Gap=     0.153 Goal=   None    Shift=    0.000
 RMSDP=5.56D-09 MaxDP=7.42D-07 DE=-3.33D-10 OVMax= 1.31D-06

 Error on total polarization charges =  0.02272
 SCF Done:  E(RM062X) =  -2615.05423150     A.U. after   14 cycles
            NFock= 14  Conv=0.56D-08     -V/T= 2.0038
 KE= 2.605140490524D+03 PE=-1.540568482802D+04 EE= 5.552987557013D+03
 Leave Link  502 at Thu Nov  6 17:36:43 2025, MaxMem= 30870077440 cpu:           40447.1 elap:             643.7
 (Enter /public/software/gauss/g16/l601.exe)
 Copying SCF densities to generalized density rwf, IOpCl= 0 IROHF=0.

 **********************************************************************

            Population analysis using the SCF density.

 **********************************************************************

 Orbital symmetries:
       Occupied  (A) (A) (A) (A) (A) (A) (A) (A) (A) (A) (A) (A)
                 (A) (A) (A) (A) (A) (A) (A) (A) (A) (A) (A) (A)
                 (A) (A) (A) (A) (A) (A) (A) (A) (A) (A) (A) (A)
                 (A) (A) (A) (A) (A) (A) (A) (A) (A) (A) (A) (A)
                 (A) (A) (A) (A) (A) (A) (A) (A) (A) (A) (A) (A)
                 (A) (A) (A) (A) (A) (A) (A) (A) (A) (A) (A) (A)
                 (A) (A) (A) (A) (A) (A) (A) (A) (A) (A) (A) (A)
                 (A) (A) (A) (A) (A) (A) (A) (A) (A) (A) (A) (A)
                 (A) (A) (A) (A) (A) (A) (A) (A) (A) (A) (A) (A)
                 (A) (A) (A) (A) (A) (A) (A) (A) (A) (A) (A) (A)
                 (A) (A) (A) (A) (A) (A) (A) (A) (A) (A) (A) (A)
                 (A) (A) (A) (A) (A) (A) (A) (A) (A) (A) (A) (A)
                 (A) (A) (A)
       Virtual   (A) (A) (A) (A) (A) (A) (A) (A) (A) (A) (A) (A)
                 (A) (A) (A) (A) (A) (A) (A) (A) (A) (A) (A) (A)
                 (A) (A) (A) (A) (A) (A) (A) (A) (A) (A) (A) (A)
                 (A) (A) (A) (A) (A) (A) (A) (A) (A) (A) (A) (A)
                 (A) (A) (A) (A) (A) (A) (A) (A) (A) (A) (A) (A)
                 (A) (A) (A) (A) (A) (A) (A) (A) (A) (A) (A) (A)
                 (A) (A) (A) (A) (A) (A) (A) (A) (A) (A) (A) (A)
                 (A) (A) (A) (A) (A) (A) (A) (A) (A) (A) (A) (A)
                 (A) (A) (A) (A) (A) (A) (A) (A) (A) (A) (A) (A)
                 (A) (A) (A) (A) (A) (A) (A) (A) (A) (A) (A) (A)
                 (A) (A) (A) (A) (A) (A) (A) (A) (A) (A) (A) (A)
                 (A) (A) (A) (A) (A) (A) (A) (A) (A) (A) (A) (A)
                 (A) (A) (A) (A) (A) (A) (A) (A) (A) (A) (A) (A)
                 (A) (A) (A) (A) (A) (A) (A) (A) (A) (A) (A) (A)
                 (A) (A) (A) (A) (A) (A) (A) (A) (A) (A) (A) (A)
                 (A) (A) (A) (A) (A) (A) (A) (A) (A) (A) (A) (A)
                 (A) (A) (A) (A) (A) (A) (A) (A) (A) (A) (A) (A)
                 (A) (A) (A) (A) (A) (A) (A) (A) (A) (A) (A) (A)
                 (A) (A) (A) (A) (A) (A) (A) (A) (A) (A) (A) (A)
                 (A) (A) (A) (A) (A) (A) (A) (A) (A) (A) (A) (A)
                 (A) (A) (A) (A) (A) (A) (A) (A) (A) (A) (A) (A)
                 (A) (A) (A) (A) (A) (A) (A) (A) (A) (A) (A) (A)
                 (A) (A) (A) (A) (A) (A) (A) (A) (A) (A) (A) (A)
                 (A) (A) (A) (A) (A) (A) (A) (A) (A) (A) (A) (A)
                 (A) (A) (A) (A) (A) (A) (A) (A) (A) (A) (A) (A)
                 (A) (A) (A) (A) (A) (A) (A) (A) (A) (A) (A) (A)
                 (A) (A) (A) (A) (A) (A) (A) (A) (A) (A) (A) (A)
                 (A) (A) (A) (A) (A) (A) (A) (A) (A) (A) (A) (A)
                 (A) (A) (A) (A) (A) (A) (A) (A) (A) (A) (A) (A)
                 (A) (A) (A) (A) (A) (A) (A) (A) (A) (A) (A) (A)
                 (A) (A) (A) (A) (A) (A) (A) (A) (A) (A) (A) (A)
                 (A) (A) (A) (A) (A) (A) (A) (A) (A) (A) (A) (A)
                 (A) (A) (A) (A) (A) (A) (A) (A) (A) (A) (A) (A)
                 (A) (A) (A) (A) (A) (A) (A) (A) (A) (A) (A) (A)
                 (A) (A) (A) (A) (A) (A) (A) (A) (A) (A) (A) (A)
                 (A) (A) (A) (A) (A) (A) (A) (A) (A) (A) (A) (A)
                 (A) (A) (A) (A) (A) (A) (A) (A) (A) (A) (A) (A)
                 (A) (A) (A) (A) (A) (A) (A) (A) (A) (A) (A) (A)
                 (A) (A) (A) (A) (A) (A) (A) (A) (A) (A) (A) (A)
                 (A) (A) (A) (A) (A) (A) (A) (A) (A) (A) (A) (A)
                 (A) (A) (A) (A) (A) (A) (A) (A) (A) (A) (A) (A)
                 (A) (A) (A) (A) (A) (A) (A) (A) (A) (A) (A) (A)
                 (A) (A) (A) (A) (A) (A) (A) (A) (A) (A) (A) (A)
                 (A) (A) (A) (A) (A) (A) (A) (A) (A) (A) (A) (A)
                 (A) (A) (A) (A) (A) (A) (A) (A) (A) (A) (A) (A)
                 (A) (A) (A) (A) (A) (A) (A) (A) (A) (A) (A) (A)
                 (A) (A) (A) (A) (A) (A) (A) (A) (A) (A) (A) (A)
                 (A) (A) (A) (A) (A) (A) (A) (A) (A) (A) (A) (A)
                 (A) (A) (A) (A) (A) (A) (A) (A) (A) (A) (A) (A)
                 (A) (A) (A) (A) (A) (A) (A) (A) (A) (A) (A) (A)
                 (A) (A) (A) (A) (A) (A) (A) (A) (A) (A) (A) (A)
                 (A) (A) (A) (A) (A) (A) (A) (A) (A) (A) (A) (A)
                 (A) (A) (A) (A) (A) (A) (A) (A) (A) (A) (A) (A)
                 (A) (A) (A) (A) (A) (A) (A) (A) (A) (A) (A) (A)
                 (A) (A) (A) (A) (A) (A) (A) (A) (A) (A) (A) (A)
                 (A) (A) (A) (A) (A) (A) (A) (A) (A) (A) (A) (A)
                 (A) (A) (A) (A) (A) (A) (A) (A) (A) (A) (A) (A)
                 (A) (A) (A) (A) (A) (A) (A) (A) (A) (A) (A) (A)
                 (A) (A) (A) (A) (A) (A) (A) (A) (A) (A) (A) (A)
                 (A) (A) (A) (A) (A) (A) (A) (A) (A) (A) (A) (A)
                 (A) (A) (A) (A) (A) (A) (A) (A) (A) (A) (A) (A)
                 (A) (A) (A) (A) (A) (A) (A) (A) (A) (A) (A) (A)
                 (A) (A) (A) (A) (A) (A) (A) (A) (A) (A) (A) (A)
                 (A) (A) (A) (A) (A) (A) (A) (A) (A) (A) (A) (A)
                 (A) (A) (A) (A) (A) (A) (A) (A) (A) (A) (A) (A)
                 (A) (A) (A) (A) (A) (A) (A) (A) (A) (A) (A) (A)
                 (A) (A) (A) (A) (A) (A) (A) (A) (A) (A) (A) (A)
                 (A) (A) (A) (A) (A) (A) (A) (A) (A) (A) (A) (A)
                 (A) (A) (A) (A) (A) (A) (A) (A) (A) (A) (A) (A)
                 (A) (A) (A) (A) (A) (A) (A) (A) (A) (A) (A) (A)
                 (A) (A) (A) (A) (A) (A) (A) (A) (A) (A) (A) (A)
                 (A) (A) (A) (A) (A) (A) (A) (A) (A) (A) (A) (A)
                 (A) (A) (A) (A) (A) (A) (A) (A) (A) (A) (A) (A)
                 (A) (A) (A) (A) (A) (A) (A) (A) (A) (A) (A) (A)
                 (A) (A) (A) (A) (A) (A) (A) (A) (A) (A) (A) (A)
                 (A) (A) (A) (A) (A) (A) (A) (A) (A) (A) (A) (A)
                 (A) (A) (A) (A) (A) (A) (A) (A) (A) (A) (A) (A)
                 (A) (A) (A) (A) (A) (A) (A) (A) (A) (A) (A) (A)
                 (A) (A) (A) (A) (A) (A) (A) (A) (A) (A) (A) (A)
                 (A) (A) (A) (A) (A) (A) (A) (A) (A) (A) (A) (A)
                 (A) (A) (A) (A) (A) (A) (A) (A) (A) (A) (A) (A)
                 (A) (A) (A) (A) (A) (A) (A) (A) (A) (A) (A) (A)
                 (A) (A) (A) (A) (A) (A) (A) (A) (A) (A) (A) (A)
                 (A) (A) (A) (A) (A) (A) (A) (A) (A) (A) (A) (A)
                 (A) (A) (A) (A) (A) (A) (A) (A) (A) (A) (A) (A)
                 (A) (A) (A) (A) (A) (A) (A) (A) (A) (A) (A) (A)
                 (A) (A) (A) (A) (A) (A) (A) (A) (A) (A) (A) (A)
                 (A) (A) (A) (A) (A) (A) (A) (A) (A) (A) (A) (A)
                 (A) (A) (A) (A) (A) (A) (A) (A) (A) (A) (A) (A)
                 (A) (A) (A) (A) (A) (A) (A) (A) (A) (A) (A) (A)
                 (A) (A) (A) (A) (A) (A) (A) (A) (A) (A) (A) (A)
                 (A) (A) (A) (A) (A) (A) (A) (A) (A) (A) (A) (A)
                 (A) (A) (A) (A) (A) (A) (A) (A) (A) (A) (A) (A)
                 (A) (A) (A) (A) (A) (A) (A) (A) (A) (A) (A) (A)
                 (A) (A) (A) (A) (A) (A) (A) (A) (A) (A) (A) (A)
                 (A) (A) (A) (A) (A) (A) (A) (A) (A) (A) (A) (A)
                 (A) (A) (A) (A) (A) (A) (A) (A) (A) (A) (A) (A)
                 (A) (A) (A) (A) (A) (A) (A) (A) (A) (A) (A) (A)
                 (A) (A) (A) (A) (A) (A) (A) (A) (A) (A) (A) (A)
                 (A) (A) (A) (A) (A) (A) (A) (A) (A) (A) (A) (A)
                 (A) (A) (A) (A) (A) (A) (A) (A) (A) (A) (A) (A)
                 (A) (A) (A) (A) (A) (A) (A) (A) (A) (A) (A) (A)
                 (A) (A) (A) (A) (A) (A) (A) (A) (A) (A) (A) (A)
                 (A) (A) (A) (A) (A) (A) (A) (A) (A) (A) (A) (A)
                 (A) (A) (A) (A) (A) (A) (A) (A) (A) (A) (A) (A)
                 (A) (A) (A) (A) (A) (A) (A) (A) (A) (A) (A) (A)
                 (A) (A) (A) (A) (A) (A) (A) (A) (A) (A) (A) (A)
                 (A) (A) (A) (A) (A) (A) (A) (A) (A) (A) (A) (A)
                 (A) (A) (A) (A) (A) (A) (A) (A) (A) (A) (A) (A)
                 (A) (A) (A) (A) (A) (A) (A) (A) (A) (A) (A) (A)
                 (A) (A) (A) (A) (A) (A) (A) (A) (A) (A) (A) (A)
                 (A) (A) (A) (A) (A) (A) (A) (A) (A) (A) (A) (A)
                 (A) (A) (A) (A) (A) (A) (A) (A) (A) (A) (A) (A)
                 (A) (A) (A) (A) (A) (A) (A) (A) (A) (A) (A) (A)
                 (A) (A) (A) (A) (A) (A) (A) (A) (A) (A) (A) (A)
                 (A) (A) (A) (A) (A) (A) (A) (A) (A) (A) (A) (A)
                 (A) (A) (A)
 The electronic state is 1-A.
 Alpha  occ. eigenvalues -- -102.66230-102.66212 -25.21262 -25.21251 -19.66799
 Alpha  occ. eigenvalues --  -19.66782 -14.80565 -14.80540 -14.77417 -10.62531
 Alpha  occ. eigenvalues --  -10.62474 -10.62232 -10.62000 -10.61989 -10.61395
 Alpha  occ. eigenvalues --  -10.61365 -10.60590 -10.60574 -10.60553 -10.60176
 Alpha  occ. eigenvalues --  -10.59665 -10.59180 -10.59177 -10.58208 -10.58205
 Alpha  occ. eigenvalues --  -10.57729 -10.57723 -10.57507 -10.57488 -10.56934
 Alpha  occ. eigenvalues --  -10.56913 -10.56342 -10.56232 -10.56083 -10.56001
 Alpha  occ. eigenvalues --  -10.55368 -10.55303 -10.55165 -10.55084  -9.82430
 Alpha  occ. eigenvalues --   -9.82411  -7.54639  -7.54620  -7.54115  -7.54108
 Alpha  occ. eigenvalues --   -7.54096  -7.54089  -7.14667  -1.33309  -1.30184
 Alpha  occ. eigenvalues --   -1.19665  -1.19644  -1.12566  -1.10857  -1.03461
 Alpha  occ. eigenvalues --   -1.00449  -0.98734  -0.98060  -0.97378  -0.97356
 Alpha  occ. eigenvalues --   -0.95046  -0.89669  -0.89297  -0.88758  -0.87853
 Alpha  occ. eigenvalues --   -0.87215  -0.86652  -0.86037  -0.85862  -0.82584
 Alpha  occ. eigenvalues --   -0.81037  -0.78910  -0.77333  -0.73831  -0.72862
 Alpha  occ. eigenvalues --   -0.71387  -0.71289  -0.70173  -0.70089  -0.68453
 Alpha  occ. eigenvalues --   -0.68224  -0.66879  -0.65168  -0.65161  -0.62563
 Alpha  occ. eigenvalues --   -0.62025  -0.61639  -0.61169  -0.60105  -0.59544
 Alpha  occ. eigenvalues --   -0.57711  -0.57147  -0.56927  -0.56545  -0.56015
 Alpha  occ. eigenvalues --   -0.55370  -0.55361  -0.54708  -0.54583  -0.53680
 Alpha  occ. eigenvalues --   -0.53112  -0.53034  -0.52557  -0.52385  -0.52063
 Alpha  occ. eigenvalues --   -0.51888  -0.51170  -0.50436  -0.50094  -0.49997
 Alpha  occ. eigenvalues --   -0.49274  -0.49061  -0.48722  -0.48498  -0.48239
 Alpha  occ. eigenvalues --   -0.47876  -0.47486  -0.47162  -0.46393  -0.46007
 Alpha  occ. eigenvalues --   -0.45539  -0.45349  -0.44988  -0.44379  -0.44161
 Alpha  occ. eigenvalues --   -0.43935  -0.43626  -0.43340  -0.43125  -0.42698
 Alpha  occ. eigenvalues --   -0.41476  -0.40550  -0.40533  -0.40203  -0.40110
 Alpha  occ. eigenvalues --   -0.39044  -0.38646  -0.37289  -0.34219  -0.33245
 Alpha  occ. eigenvalues --   -0.32846  -0.32573  -0.32380  -0.32339  -0.30519
 Alpha  occ. eigenvalues --   -0.28920  -0.25839
 Alpha virt. eigenvalues --   -0.10584  -0.03842  -0.01034   0.00069   0.00611
 Alpha virt. eigenvalues --    0.00790   0.01084   0.05050   0.05794   0.06060
 Alpha virt. eigenvalues --    0.06249   0.06473   0.07309   0.07339   0.07608
 Alpha virt. eigenvalues --    0.08020   0.08031   0.08671   0.09144   0.09390
 Alpha virt. eigenvalues --    0.09873   0.10039   0.10420   0.10723   0.10920
 Alpha virt. eigenvalues --    0.11367   0.11605   0.11856   0.12530   0.12690
 Alpha virt. eigenvalues --    0.13062   0.13742   0.14032   0.14286   0.14697
 Alpha virt. eigenvalues --    0.14881   0.15104   0.15446   0.15614   0.15798
 Alpha virt. eigenvalues --    0.16279   0.16751   0.16900   0.17069   0.17251
 Alpha virt. eigenvalues --    0.17669   0.17932   0.18116   0.18751   0.19234
 Alpha virt. eigenvalues --    0.19906   0.20142   0.20739   0.21142   0.21471
 Alpha virt. eigenvalues --    0.21593   0.22023   0.22405   0.22593   0.22812
 Alpha virt. eigenvalues --    0.23218   0.23489   0.23652   0.23798   0.23951
 Alpha virt. eigenvalues --    0.24394   0.24598   0.24879   0.25191   0.25542
 Alpha virt. eigenvalues --    0.25840   0.25943   0.26290   0.26445   0.26501
 Alpha virt. eigenvalues --    0.26737   0.26875   0.27100   0.27292   0.27802
 Alpha virt. eigenvalues --    0.28265   0.28284   0.28608   0.29005   0.29378
 Alpha virt. eigenvalues --    0.29778   0.29922   0.30040   0.30150   0.30909
 Alpha virt. eigenvalues --    0.30992   0.31393   0.31466   0.31647   0.32052
 Alpha virt. eigenvalues --    0.32178   0.32656   0.32721   0.32965   0.33292
 Alpha virt. eigenvalues --    0.33604   0.33673   0.34114   0.34623   0.34826
 Alpha virt. eigenvalues --    0.35405   0.35609   0.35852   0.35946   0.36163
 Alpha virt. eigenvalues --    0.36562   0.36871   0.37144   0.37527   0.37612
 Alpha virt. eigenvalues --    0.37620   0.37975   0.38287   0.38488   0.38741
 Alpha virt. eigenvalues --    0.38883   0.39137   0.39392   0.39578   0.39669
 Alpha virt. eigenvalues --    0.40026   0.40212   0.40428   0.40487   0.40771
 Alpha virt. eigenvalues --    0.41068   0.41171   0.41639   0.41684   0.41758
 Alpha virt. eigenvalues --    0.41911   0.42307   0.42605   0.42787   0.43291
 Alpha virt. eigenvalues --    0.43548   0.43767   0.43840   0.44325   0.44647
 Alpha virt. eigenvalues --    0.44668   0.44947   0.45494   0.45755   0.45943
 Alpha virt. eigenvalues --    0.46136   0.46350   0.46654   0.46923   0.47060
 Alpha virt. eigenvalues --    0.47360   0.47543   0.47793   0.47989   0.48621
 Alpha virt. eigenvalues --    0.48799   0.49088   0.49116   0.49379   0.49671
 Alpha virt. eigenvalues --    0.49825   0.49949   0.50223   0.50629   0.50684
 Alpha virt. eigenvalues --    0.51303   0.51709   0.51806   0.52249   0.52275
 Alpha virt. eigenvalues --    0.52657   0.53224   0.53329   0.53859   0.54087
 Alpha virt. eigenvalues --    0.54164   0.54868   0.55116   0.55502   0.56105
 Alpha virt. eigenvalues --    0.56538   0.56665   0.57218   0.57414   0.57730
 Alpha virt. eigenvalues --    0.58248   0.58787   0.58809   0.59247   0.59428
 Alpha virt. eigenvalues --    0.59886   0.60047   0.60658   0.60910   0.61318
 Alpha virt. eigenvalues --    0.61669   0.61764   0.62166   0.62439   0.62653
 Alpha virt. eigenvalues --    0.63254   0.63318   0.63596   0.63861   0.64409
 Alpha virt. eigenvalues --    0.64454   0.65085   0.65232   0.65385   0.65763
 Alpha virt. eigenvalues --    0.65955   0.66249   0.66558   0.66878   0.67513
 Alpha virt. eigenvalues --    0.67680   0.67989   0.68280   0.68364   0.68540
 Alpha virt. eigenvalues --    0.68864   0.69276   0.69347   0.69763   0.69942
 Alpha virt. eigenvalues --    0.70076   0.70474   0.70653   0.70890   0.71574
 Alpha virt. eigenvalues --    0.71665   0.72136   0.72213   0.72357   0.72494
 Alpha virt. eigenvalues --    0.72793   0.73212   0.73621   0.74009   0.74503
 Alpha virt. eigenvalues --    0.74761   0.75287   0.75473   0.75819   0.76075
 Alpha virt. eigenvalues --    0.76431   0.76747   0.77021   0.77388   0.78177
 Alpha virt. eigenvalues --    0.78773   0.78853   0.79380   0.79824   0.80158
 Alpha virt. eigenvalues --    0.80503   0.80658   0.80858   0.81285   0.81707
 Alpha virt. eigenvalues --    0.82080   0.82285   0.82652   0.82780   0.83158
 Alpha virt. eigenvalues --    0.83470   0.83546   0.84107   0.84163   0.84535
 Alpha virt. eigenvalues --    0.84650   0.85318   0.86008   0.86338   0.86677
 Alpha virt. eigenvalues --    0.86952   0.87537   0.87610   0.87910   0.88229
 Alpha virt. eigenvalues --    0.88432   0.88753   0.88965   0.89993   0.90596
 Alpha virt. eigenvalues --    0.91008   0.91394   0.91556   0.91605   0.92357
 Alpha virt. eigenvalues --    0.92854   0.93236   0.93389   0.93665   0.94215
 Alpha virt. eigenvalues --    0.94717   0.95041   0.95712   0.96151   0.96393
 Alpha virt. eigenvalues --    0.96705   0.97183   0.97533   0.98115   0.98193
 Alpha virt. eigenvalues --    0.98644   0.98879   0.99215   1.00066   1.00156
 Alpha virt. eigenvalues --    1.00670   1.01052   1.01232   1.01459   1.01617
 Alpha virt. eigenvalues --    1.01792   1.02312   1.02476   1.02939   1.03351
 Alpha virt. eigenvalues --    1.03716   1.03992   1.04272   1.04412   1.05048
 Alpha virt. eigenvalues --    1.05399   1.05501   1.06239   1.06381   1.06806
 Alpha virt. eigenvalues --    1.07215   1.07593   1.07631   1.08619   1.08996
 Alpha virt. eigenvalues --    1.09141   1.09593   1.09848   1.09987   1.10445
 Alpha virt. eigenvalues --    1.10964   1.11371   1.11573   1.11825   1.12079
 Alpha virt. eigenvalues --    1.12453   1.12786   1.12883   1.13132   1.13835
 Alpha virt. eigenvalues --    1.14149   1.14481   1.14836   1.15892   1.16317
 Alpha virt. eigenvalues --    1.16841   1.16970   1.17544   1.18369   1.19029
 Alpha virt. eigenvalues --    1.19503   1.19918   1.20386   1.20532   1.20668
 Alpha virt. eigenvalues --    1.21126   1.21322   1.21788   1.21965   1.22413
 Alpha virt. eigenvalues --    1.23003   1.23233   1.23517   1.23889   1.24492
 Alpha virt. eigenvalues --    1.24559   1.25465   1.25673   1.26303   1.26451
 Alpha virt. eigenvalues --    1.26818   1.26945   1.27943   1.27977   1.28418
 Alpha virt. eigenvalues --    1.28656   1.28698   1.29470   1.30107   1.30269
 Alpha virt. eigenvalues --    1.30922   1.31235   1.31385   1.32162   1.32528
 Alpha virt. eigenvalues --    1.33094   1.33271   1.33719   1.34981   1.35209
 Alpha virt. eigenvalues --    1.35668   1.35869   1.36555   1.37275   1.37597
 Alpha virt. eigenvalues --    1.37709   1.38112   1.38258   1.38560   1.38707
 Alpha virt. eigenvalues --    1.39421   1.39756   1.39934   1.40495   1.40817
 Alpha virt. eigenvalues --    1.41138   1.41558   1.41865   1.42447   1.42596
 Alpha virt. eigenvalues --    1.42920   1.43149   1.43371   1.44060   1.44438
 Alpha virt. eigenvalues --    1.44500   1.44821   1.45013   1.45447   1.45669
 Alpha virt. eigenvalues --    1.45969   1.46370   1.46566   1.46810   1.47048
 Alpha virt. eigenvalues --    1.47865   1.48144   1.48662   1.49323   1.49727
 Alpha virt. eigenvalues --    1.50073   1.50325   1.51001   1.51469   1.51823
 Alpha virt. eigenvalues --    1.52007   1.52621   1.52841   1.53199   1.53511
 Alpha virt. eigenvalues --    1.53834   1.54487   1.54734   1.55104   1.55647
 Alpha virt. eigenvalues --    1.56412   1.57104   1.57317   1.57376   1.57597
 Alpha virt. eigenvalues --    1.57984   1.58172   1.58804   1.58990   1.59459
 Alpha virt. eigenvalues --    1.59770   1.60031   1.60389   1.60745   1.60971
 Alpha virt. eigenvalues --    1.61717   1.62187   1.63080   1.63190   1.64084
 Alpha virt. eigenvalues --    1.64866   1.65281   1.66138   1.66417   1.66803
 Alpha virt. eigenvalues --    1.66942   1.67269   1.67660   1.68057   1.68295
 Alpha virt. eigenvalues --    1.68988   1.69362   1.69624   1.70196   1.70730
 Alpha virt. eigenvalues --    1.71041   1.71291   1.71706   1.72198   1.72285
 Alpha virt. eigenvalues --    1.72549   1.72871   1.73560   1.73846   1.74800
 Alpha virt. eigenvalues --    1.74957   1.76138   1.76794   1.77035   1.77300
 Alpha virt. eigenvalues --    1.77449   1.78340   1.79626   1.80532   1.80906
 Alpha virt. eigenvalues --    1.81301   1.82095   1.82474   1.82578   1.83007
 Alpha virt. eigenvalues --    1.83355   1.83459   1.84193   1.85027   1.85703
 Alpha virt. eigenvalues --    1.86028   1.86806   1.86983   1.87423   1.87891
 Alpha virt. eigenvalues --    1.88127   1.88736   1.89085   1.89204   1.89604
 Alpha virt. eigenvalues --    1.90079   1.90249   1.90595   1.90771   1.90962
 Alpha virt. eigenvalues --    1.91139   1.91753   1.92414   1.92676   1.93498
 Alpha virt. eigenvalues --    1.94097   1.94312   1.94548   1.94737   1.95462
 Alpha virt. eigenvalues --    1.95827   1.96594   1.97188   1.97411   1.97785
 Alpha virt. eigenvalues --    1.99043   1.99488   1.99861   2.00240   2.00378
 Alpha virt. eigenvalues --    2.01011   2.01248   2.01786   2.02233   2.02368
 Alpha virt. eigenvalues --    2.03108   2.03765   2.04175   2.04997   2.05601
 Alpha virt. eigenvalues --    2.06099   2.06826   2.07715   2.08425   2.09076
 Alpha virt. eigenvalues --    2.09550   2.10257   2.10776   2.11264   2.11698
 Alpha virt. eigenvalues --    2.12184   2.12654   2.12915   2.13065   2.13673
 Alpha virt. eigenvalues --    2.14074   2.14190   2.14498   2.15143   2.15339
 Alpha virt. eigenvalues --    2.16014   2.16349   2.16940   2.17833   2.18329
 Alpha virt. eigenvalues --    2.18684   2.19212   2.19272   2.19978   2.20601
 Alpha virt. eigenvalues --    2.21324   2.21395   2.22223   2.23258   2.23613
 Alpha virt. eigenvalues --    2.23952   2.24211   2.24974   2.25255   2.25455
 Alpha virt. eigenvalues --    2.25691   2.25940   2.26469   2.26883   2.27317
 Alpha virt. eigenvalues --    2.27880   2.28264   2.28863   2.29608   2.29783
 Alpha virt. eigenvalues --    2.30037   2.30547   2.30876   2.31434   2.32430
 Alpha virt. eigenvalues --    2.32861   2.33835   2.34226   2.35047   2.35308
 Alpha virt. eigenvalues --    2.35485   2.35666   2.36494   2.37367   2.37642
 Alpha virt. eigenvalues --    2.38171   2.39096   2.39618   2.39935   2.40687
 Alpha virt. eigenvalues --    2.40775   2.40839   2.41637   2.42349   2.42692
 Alpha virt. eigenvalues --    2.43221   2.44204   2.44730   2.45494   2.45653
 Alpha virt. eigenvalues --    2.46487   2.46785   2.47517   2.48153   2.49229
 Alpha virt. eigenvalues --    2.50187   2.50800   2.51462   2.52721   2.53890
 Alpha virt. eigenvalues --    2.54479   2.55291   2.55701   2.56568   2.56720
 Alpha virt. eigenvalues --    2.57681   2.58035   2.58402   2.58748   2.58862
 Alpha virt. eigenvalues --    2.59688   2.60090   2.60814   2.62481   2.63199
 Alpha virt. eigenvalues --    2.63344   2.64101   2.64723   2.65081   2.66020
 Alpha virt. eigenvalues --    2.66478   2.66943   2.67129   2.67594   2.68109
 Alpha virt. eigenvalues --    2.68898   2.69130   2.69620   2.70332   2.71010
 Alpha virt. eigenvalues --    2.71327   2.72082   2.72577   2.72805   2.73060
 Alpha virt. eigenvalues --    2.73284   2.74072   2.74653   2.75290   2.75407
 Alpha virt. eigenvalues --    2.75738   2.76040   2.76565   2.76894   2.77391
 Alpha virt. eigenvalues --    2.77664   2.78732   2.79146   2.79332   2.79638
 Alpha virt. eigenvalues --    2.79984   2.80108   2.80291   2.80409   2.81064
 Alpha virt. eigenvalues --    2.81254   2.81546   2.82018   2.82166   2.83056
 Alpha virt. eigenvalues --    2.83562   2.83853   2.83998   2.84355   2.84779
 Alpha virt. eigenvalues --    2.85407   2.85883   2.86324   2.86867   2.87661
 Alpha virt. eigenvalues --    2.87694   2.87950   2.88543   2.88615   2.88890
 Alpha virt. eigenvalues --    2.89476   2.89899   2.90009   2.90539   2.90685
 Alpha virt. eigenvalues --    2.90811   2.91188   2.91433   2.91952   2.92320
 Alpha virt. eigenvalues --    2.92459   2.92687   2.93599   2.93616   2.93990
 Alpha virt. eigenvalues --    2.94539   2.94696   2.95081   2.95400   2.95880
 Alpha virt. eigenvalues --    2.96365   2.96430   2.96972   2.97005   2.97541
 Alpha virt. eigenvalues --    2.98117   2.98334   2.99023   2.99143   2.99664
 Alpha virt. eigenvalues --    2.99917   3.00119   3.00307   3.00800   3.01075
 Alpha virt. eigenvalues --    3.01524   3.01814   3.01887   3.02366   3.02676
 Alpha virt. eigenvalues --    3.02787   3.03429   3.04097   3.04262   3.04360
 Alpha virt. eigenvalues --    3.04530   3.04850   3.05326   3.05628   3.06067
 Alpha virt. eigenvalues --    3.06366   3.06735   3.06828   3.07706   3.08021
 Alpha virt. eigenvalues --    3.08470   3.08766   3.09024   3.09278   3.09523
 Alpha virt. eigenvalues --    3.09748   3.10173   3.10493   3.10683   3.11022
 Alpha virt. eigenvalues --    3.11113   3.11496   3.11668   3.11877   3.12058
 Alpha virt. eigenvalues --    3.12543   3.12609   3.13085   3.13593   3.13733
 Alpha virt. eigenvalues --    3.14243   3.14479   3.15102   3.15369   3.15648
 Alpha virt. eigenvalues --    3.16119   3.16399   3.16504   3.17085   3.17214
 Alpha virt. eigenvalues --    3.17861   3.18070   3.18320   3.18530   3.19048
 Alpha virt. eigenvalues --    3.19600   3.20080   3.20446   3.20595   3.20770
 Alpha virt. eigenvalues --    3.20922   3.21145   3.21467   3.21781   3.22471
 Alpha virt. eigenvalues --    3.22931   3.23280   3.23382   3.24350   3.24488
 Alpha virt. eigenvalues --    3.25171   3.25439   3.25914   3.26247   3.26696
 Alpha virt. eigenvalues --    3.26865   3.27173   3.27362   3.28030   3.28443
 Alpha virt. eigenvalues --    3.28880   3.29248   3.29469   3.29590   3.29898
 Alpha virt. eigenvalues --    3.30200   3.30564   3.30820   3.31130   3.31259
 Alpha virt. eigenvalues --    3.31874   3.31975   3.32457   3.32575   3.32943
 Alpha virt. eigenvalues --    3.33125   3.33348   3.33661   3.34254   3.34662
 Alpha virt. eigenvalues --    3.34985   3.35426   3.35862   3.36037   3.36520
 Alpha virt. eigenvalues --    3.36799   3.37241   3.37525   3.37684   3.38075
 Alpha virt. eigenvalues --    3.38558   3.38995   3.39120   3.39384   3.40489
 Alpha virt. eigenvalues --    3.40928   3.41184   3.41415   3.42259   3.43200
 Alpha virt. eigenvalues --    3.43480   3.43777   3.43952   3.44397   3.44748
 Alpha virt. eigenvalues --    3.44849   3.45361   3.45531   3.45872   3.46162
 Alpha virt. eigenvalues --    3.46407   3.46726   3.46920   3.47331   3.47666
 Alpha virt. eigenvalues --    3.47772   3.48140   3.48705   3.49161   3.49690
 Alpha virt. eigenvalues --    3.50026   3.50698   3.50912   3.51701   3.52010
 Alpha virt. eigenvalues --    3.52174   3.52724   3.52972   3.53513   3.54110
 Alpha virt. eigenvalues --    3.54389   3.54720   3.55696   3.55834   3.56086
 Alpha virt. eigenvalues --    3.56783   3.57251   3.57976   3.58702   3.59121
 Alpha virt. eigenvalues --    3.59366   3.59995   3.60367   3.60676   3.61088
 Alpha virt. eigenvalues --    3.61881   3.62376   3.62593   3.63147   3.63426
 Alpha virt. eigenvalues --    3.63787   3.64070   3.64340   3.64604   3.65274
 Alpha virt. eigenvalues --    3.65901   3.66312   3.66676   3.66889   3.67218
 Alpha virt. eigenvalues --    3.67813   3.68224   3.68396   3.69800   3.70200
 Alpha virt. eigenvalues --    3.70827   3.70896   3.71713   3.72010   3.72661
 Alpha virt. eigenvalues --    3.73102   3.73584   3.73844   3.74492   3.74964
 Alpha virt. eigenvalues --    3.75146   3.75196   3.76392   3.76788   3.77252
 Alpha virt. eigenvalues --    3.77748   3.77900   3.78058   3.78934   3.79185
 Alpha virt. eigenvalues --    3.79680   3.79912   3.80186   3.80501   3.81319
 Alpha virt. eigenvalues --    3.81720   3.82190   3.82551   3.82967   3.83344
 Alpha virt. eigenvalues --    3.83814   3.84053   3.85060   3.85342   3.86321
 Alpha virt. eigenvalues --    3.86722   3.87198   3.87544   3.88290   3.88542
 Alpha virt. eigenvalues --    3.88923   3.89017   3.89235   3.89365   3.89631
 Alpha virt. eigenvalues --    3.90571   3.90968   3.91555   3.92314   3.93170
 Alpha virt. eigenvalues --    3.93321   3.94057   3.94579   3.94784   3.94927
 Alpha virt. eigenvalues --    3.94973   3.95408   3.95600   3.95739   3.95899
 Alpha virt. eigenvalues --    3.96408   3.97218   3.97823   3.97947   3.98241
 Alpha virt. eigenvalues --    3.98761   3.99151   4.00276   4.01289   4.01436
 Alpha virt. eigenvalues --    4.01891   4.02463   4.02748   4.03005   4.03862
 Alpha virt. eigenvalues --    4.04256   4.04525   4.04871   4.05175   4.05574
 Alpha virt. eigenvalues --    4.05786   4.06510   4.06965   4.07203   4.07573
 Alpha virt. eigenvalues --    4.07930   4.07983   4.08473   4.09103   4.09369
 Alpha virt. eigenvalues --    4.09990   4.10163   4.10922   4.11368   4.11826
 Alpha virt. eigenvalues --    4.11881   4.12080   4.12478   4.13159   4.14206
 Alpha virt. eigenvalues --    4.14660   4.15171   4.15624   4.16293   4.16605
 Alpha virt. eigenvalues --    4.17363   4.17544   4.18088   4.18368   4.18868
 Alpha virt. eigenvalues --    4.19264   4.19632   4.19730   4.20040   4.20403
 Alpha virt. eigenvalues --    4.20695   4.21671   4.21897   4.22636   4.22778
 Alpha virt. eigenvalues --    4.23230   4.23488   4.23601   4.24389   4.25086
 Alpha virt. eigenvalues --    4.25682   4.26233   4.26760   4.27581   4.28082
 Alpha virt. eigenvalues --    4.28389   4.28826   4.29650   4.30800   4.31015
 Alpha virt. eigenvalues --    4.31436   4.31674   4.32683   4.33154   4.33454
 Alpha virt. eigenvalues --    4.34522   4.35049   4.35410   4.36425   4.36515
 Alpha virt. eigenvalues --    4.38502   4.38844   4.39753   4.40304   4.40883
 Alpha virt. eigenvalues --    4.42100   4.42974   4.43342   4.43621   4.44201
 Alpha virt. eigenvalues --    4.45598   4.46441   4.47219   4.47264   4.47643
 Alpha virt. eigenvalues --    4.47935   4.48482   4.48901   4.50299   4.50505
 Alpha virt. eigenvalues --    4.50795   4.51561   4.51974   4.52446   4.52673
 Alpha virt. eigenvalues --    4.53059   4.54133   4.55492   4.55913   4.56927
 Alpha virt. eigenvalues --    4.57284   4.57674   4.58201   4.59010   4.59534
 Alpha virt. eigenvalues --    4.59774   4.60805   4.61883   4.63300   4.63770
 Alpha virt. eigenvalues --    4.64027   4.64301   4.65724   4.66175   4.66815
 Alpha virt. eigenvalues --    4.67941   4.68448   4.68761   4.69217   4.69474
 Alpha virt. eigenvalues --    4.70351   4.70728   4.70909   4.71160   4.71546
 Alpha virt. eigenvalues --    4.71897   4.73687   4.74956   4.75395   4.75482
 Alpha virt. eigenvalues --    4.76919   4.78612   4.79141   4.80128   4.81560
 Alpha virt. eigenvalues --    4.82128   4.83207   4.83762   4.84814   4.86242
 Alpha virt. eigenvalues --    4.87142   4.88000   4.89528   4.89678   4.90604
 Alpha virt. eigenvalues --    4.90712   4.92179   4.92426   4.93156   4.93524
 Alpha virt. eigenvalues --    4.93774   4.93983   4.94233   4.94659   4.95374
 Alpha virt. eigenvalues --    4.96154   4.96299   4.96520   4.96714   4.97120
 Alpha virt. eigenvalues --    4.97792   4.98554   4.98968   5.01171   5.04206
 Alpha virt. eigenvalues --    5.05382   5.06079   5.06289   5.07174   5.07208
 Alpha virt. eigenvalues --    5.08047   5.09542   5.09779   5.10215   5.10363
 Alpha virt. eigenvalues --    5.10809   5.11846   5.12935   5.13263   5.14087
 Alpha virt. eigenvalues --    5.15151   5.15833   5.16119   5.16146   5.16980
 Alpha virt. eigenvalues --    5.18908   5.19484   5.19884   5.20737   5.21263
 Alpha virt. eigenvalues --    5.21367   5.23621   5.24404   5.26590   5.26724
 Alpha virt. eigenvalues --    5.27660   5.28125   5.28870   5.29254   5.29461
 Alpha virt. eigenvalues --    5.31428   5.32430   5.32470   5.33101   5.33853
 Alpha virt. eigenvalues --    5.34398   5.37267   5.38022   5.38482   5.39111
 Alpha virt. eigenvalues --    5.40096   5.40321   5.40980   5.41170   5.43797
 Alpha virt. eigenvalues --    5.44049   5.46345   5.46505   5.48137   5.48376
 Alpha virt. eigenvalues --    5.48901   5.48994   5.49301   5.50321   5.51470
 Alpha virt. eigenvalues --    5.53214   5.53233   5.53982   5.55671   5.55817
 Alpha virt. eigenvalues --    5.58758   5.59735   5.60270   5.60724   5.61499
 Alpha virt. eigenvalues --    5.62704   5.63215   5.64144   5.64272   5.64997
 Alpha virt. eigenvalues --    5.66131   5.68227   5.70005   5.70791   5.72795
 Alpha virt. eigenvalues --    5.75260   5.77143   5.78756   5.79747   5.82523
 Alpha virt. eigenvalues --    5.83055   5.84251   5.84331   5.89157   5.93525
 Alpha virt. eigenvalues --    5.94237   5.96393   5.98805   6.01521   6.01945
 Alpha virt. eigenvalues --    6.02007   6.02058   6.07413   6.09441   6.16556
 Alpha virt. eigenvalues --    6.17482   6.19706   6.26011   6.28376   6.31941
 Alpha virt. eigenvalues --    6.41561   6.41635   6.45928   6.69421   6.69441
 Alpha virt. eigenvalues --    6.72336   6.72440   6.82802   6.82885   6.91071
 Alpha virt. eigenvalues --    6.91095   6.93331   6.94032   6.96655   6.97812
 Alpha virt. eigenvalues --    6.98769   6.99504   7.05195   7.10662   7.16069
 Alpha virt. eigenvalues --    7.21500   7.23805   7.26380   7.27112   7.27168
 Alpha virt. eigenvalues --    7.33240   7.34503   7.44060   7.44163   8.16659
 Alpha virt. eigenvalues --    8.16765   8.20091   8.20228   8.22973   8.23176
 Alpha virt. eigenvalues --    8.33338   8.33870   8.42427   8.42835   8.44378
 Alpha virt. eigenvalues --    8.47376   8.55111   8.58513   8.83810   8.86967
 Alpha virt. eigenvalues --    8.91817   8.92560   8.93373   8.98872  10.82137
 Alpha virt. eigenvalues --   10.82233  10.91944  10.92584  11.44527  11.44710
 Alpha virt. eigenvalues --   15.83355  22.71924  22.74701  22.78633  22.84382
 Alpha virt. eigenvalues --   22.88092  23.04960  23.05747  23.11571  23.14891
 Alpha virt. eigenvalues --   23.15295  23.18970  23.22674  23.24100  23.27194
 Alpha virt. eigenvalues --   23.27937  23.28251  23.32560  23.34495  23.35851
 Alpha virt. eigenvalues --   23.36382  23.42567  23.45510  23.60282  23.60468
 Alpha virt. eigenvalues --   23.64209  23.64611  23.79848  24.10270  24.10413
 Alpha virt. eigenvalues --   24.21603  26.27128  26.28094  32.19639  33.09077
 Alpha virt. eigenvalues --   33.24828  44.49165  44.49300  57.38628  57.59859
          Condensed to atoms (all electrons):
 Mulliken charges:
               1
     1  C   -0.250000
     2  O   -0.301066
     3  C    0.228446
     4  C   -0.188575
     5  C   -0.160015
     6  C   -0.129533
     7  C    0.147873
     8  C   -0.079398
     9  Cl  -0.055684
    10  C   -0.094748
    11  C    0.051054
    12  C    0.144126
    13  C   -0.079740
    14  C   -0.185884
    15  C   -0.103163
    16  C    0.105211
    17  C   -0.193396
    18  N   -0.071054
    19  C   -0.104143
    20  C   -0.184332
    21  C    0.053248
    22  C   -0.092375
    23  C   -0.082055
    24  Cl  -0.055105
    25  C    0.149173
    26  C   -0.118935
    27  C   -0.143610
    28  C   -0.193636
    29  C    0.233250
    30  O   -0.301028
    31  C   -0.249886
    32  C   -0.177017
    33  C   -0.161896
    34  N   -0.077238
    35  B    0.395869
    36  F   -0.336942
    37  F   -0.336755
    38  N   -0.081568
    39  C   -0.132926
    40  C   -0.176842
    41  H    0.148962
    42  H    0.149933
    43  H    0.149394
    44  H    0.158480
    45  H    0.169239
    46  H    0.221687
    47  H    0.197061
    48  H    0.175432
    49  H    0.175601
    50  H    0.197106
    51  H    0.222671
    52  H    0.169806
    53  H    0.159830
    54  H    0.148945
    55  H    0.149935
    56  H    0.149824
    57  H    0.158276
    58  H    0.166984
    59  H    0.161520
    60  H    0.159612
 Sum of Mulliken charges =  -0.00000
 Mulliken charges with hydrogens summed into heavy atoms:
               1
     1  C    0.198288
     2  O   -0.301066
     3  C    0.228446
     4  C   -0.030095
     5  C    0.009224
     6  C   -0.129533
     7  C    0.147873
     8  C   -0.079398
     9  Cl  -0.055684
    10  C    0.126938
    11  C    0.051054
    12  C    0.144126
    13  C   -0.079740
    14  C    0.011177
    15  C    0.072269
    16  C    0.105211
    17  C   -0.193396
    18  N   -0.071054
    19  C    0.071459
    20  C    0.012774
    21  C    0.053248
    22  C    0.130296
    23  C   -0.082055
    24  Cl  -0.055105
    25  C    0.149173
    26  C   -0.118935
    27  C    0.026196
    28  C   -0.033806
    29  C    0.233250
    30  O   -0.301028
    31  C    0.198817
    32  C   -0.018741
    33  C    0.005088
    34  N   -0.077238
    35  B    0.395869
    36  F   -0.336942
    37  F   -0.336755
    38  N   -0.081568
    39  C    0.028594
    40  C   -0.017230
 Electronic spatial extent (au):  <R**2>=          27267.8906
 Charge=             -0.0000 electrons
 Dipole moment (field-independent basis, Debye):
    X=              3.5775    Y=             -1.7137    Z=             -2.4322  Tot=              4.6531
 Quadrupole moment (field-independent basis, Debye-Ang):
   XX=           -263.6768   YY=           -229.5384   ZZ=           -234.1285
   XY=             -9.7355   XZ=            -18.0079   YZ=             13.4208
 Traceless Quadrupole moment (field-independent basis, Debye-Ang):
   XX=            -21.2289   YY=             12.9095   ZZ=              8.3194
   XY=             -9.7355   XZ=            -18.0079   YZ=             13.4208
 Octapole moment (field-independent basis, Debye-Ang**2):
  XXX=           1116.0430  YYY=           -117.7497  ZZZ=             -1.7161  XYY=            164.0069
  XXY=              6.2608  XXZ=            -72.6244  XZZ=             15.7052  YZZ=              3.0037
  YYZ=            -59.9621  XYZ=            -16.9671
 Hexadecapole moment (field-independent basis, Debye-Ang**3):
 XXXX=         -28614.7124 YYYY=         -14701.0568 ZZZZ=           -895.2487 XXXY=           -424.2867
 XXXZ=           -811.7582 YYYX=           -633.3261 YYYZ=            358.8058 ZZZX=             -7.6363
 ZZZY=             46.5544 XXYY=          -4971.8689 XXZZ=          -3445.7633 YYZZ=          -2570.7185
 XXYZ=            162.4889 YYXZ=           -355.9800 ZZXY=             19.7897
 N-N= 4.632502548988D+03 E-N=-1.540568481995D+04  KE= 2.605140490524D+03
 No NMR shielding tensors so no spin-rotation constants.
 Leave Link  601 at Thu Nov  6 17:36:45 2025, MaxMem= 30870077440 cpu:             114.3 elap:               2.1
 (Enter /public/software/gauss/g16/l9999.exe)
 1\1\GINC-CU015\SP\RM062X\def2TZVPP\C30H20B1Cl2F2N3O2\BAIDING\06-Nov-20
 25\0\\#p M062X/DEF2TZVPP scrf=(solvent=water) em=GD3\\Energy calculati
 on for M100033921\\0,1\C,0,6.043072,-5.221101,-0.596881\O,0,5.534726,-
 4.282464,0.358535\C,0,4.230551,-3.892636,0.249171\C,0,3.348424,-4.3457
 86,-0.740405\C,0,2.034502,-3.881896,-0.751025\C,0,1.57686,-2.953516,0.
 198167\C,0,0.172764,-2.520591,0.162077\C,0,-0.975042,-3.360163,0.13589
 9\Cl,0,-0.955782,-5.096924,0.229286\C,0,-2.110766,-2.575935,0.105333\C
 ,0,-1.658675,-1.236491,0.08184\C,0,-2.399345,-0.047409,0.003125\C,0,-3
 .883403,-0.104426,-0.038453\C,0,-4.534989,-0.814215,-1.061634\C,0,-5.9
 22789,-0.869856,-1.10897\C,0,-6.67721,-0.21832,-0.11954\C,0,-8.106419,
 -0.277754,-0.160139\N,0,-9.27082,-0.326216,-0.193297\C,0,-6.036587,0.4
 90487,0.909912\C,0,-4.648314,0.548391,0.943151\C,0,-1.744728,1.192553,
 -0.037578\C,0,-2.291,2.496574,-0.064219\C,0,-1.215256,3.360502,-0.0341
 95\Cl,0,-1.321188,5.095211,-0.106867\C,0,-0.008493,2.605999,-0.021899\
 C,0,1.359648,3.140962,0.001769\C,0,1.699703,4.1224,0.95593\C,0,2.97012
 4,4.675448,0.988773\C,0,3.937073,4.275181,0.052431\O,0,5.154959,4.8828
 43,0.158807\C,0,6.178551,4.514361,-0.773417\C,0,3.61447,3.309525,-0.90
 9712\C,0,2.337566,2.75138,-0.927119\N,0,-0.351639,1.288392,-0.034273\B
 ,0,0.620491,0.059107,0.026686\F,0,1.376543,-0.038165,-1.141992\F,0,1.4
 44427,0.206739,1.139271\N,0,-0.263751,-1.231103,0.14137\C,0,2.477087,-
 2.512392,1.188316\C,0,3.783159,-2.977033,1.215018\H,0,5.993377,-4.8183
 07,-1.613926\H,0,7.085256,-5.387004,-0.322353\H,0,5.497697,-6.169477,-
 0.549698\H,0,3.670312,-5.048364,-1.498791\H,0,1.362706,-4.232452,-1.52
 7362\H,0,-3.137371,-2.908136,0.110206\H,0,-3.952335,-1.306116,-1.83227
 4\H,0,-6.423026,-1.409616,-1.905095\H,0,-6.624735,0.985261,1.674624\H,
 0,-4.153492,1.083677,1.745559\H,0,-3.337837,2.754768,-0.107924\H,0,0.9
 67573,4.434976,1.692525\H,0,3.234979,5.418807,1.733462\H,0,5.878226,4.
 740568,-1.801861\H,0,7.049423,5.114759,-0.508576\H,0,6.428376,3.451635
 ,-0.688361\H,0,4.341085,2.99188,-1.647137\H,0,2.099213,2.0084,-1.67658
 9\H,0,2.145955,-1.809636,1.941144\H,0,4.474665,-2.64521,1.982666\\Vers
 ion=ES64L-G16RevA.03\State=1-A\HF=-2615.0542315\RMSD=5.556e-09\Dipole=
 1.4075002,-0.6742404,-0.9568872\Quadrupole=-15.7831828,9.5978877,6.185
 2951,-7.2381086,-13.3884571,9.9780463\PG=C01 [X(C30H20B1Cl2F2N3O2)]\\@


 A MUSTACHE HAIR ACROSS A CHIP IS LIKE A REDWOOD
 TREE FALLING THROUGH A HOUSING PROJECT.
 - AN IBM MANAGER IN EAST FISHKILL, NEW YORK
   AS QUOTED IN "FROM SANDS TO CIRCUITS", IBM INNOVATION JANUARY 1985.
 Job cpu time:       0 days 11 hours 31 minutes 47.6 seconds.
 Elapsed time:       0 days  0 hours 11 minutes  0.9 seconds.
 File lengths (MBytes):  RWF=   1583 Int=      0 D2E=      0 Chk=    139 Scr=      1
 Normal termination of Gaussian 16 at Thu Nov  6 17:36:46 2025.
