 Entering Gaussian System, Link 0=g16
 Input=M100034762_sp.gjf
 Output=M100034762_sp.log
 Initial command:
 /work/home/accqbws0vm/apprepo/gaussian/16-hy/scripts/../app/g16/l1.exe "/work/home/accqbws0vm/1010_second_energy/tmp_M100034762_sp_25874611/Gau-10139.inp" -scrdir="/work/home/accqbws0vm/1010_second_energy/tmp_M100034762_sp_25874611/"
 Entering Link 1 = /work/home/accqbws0vm/apprepo/gaussian/16-hy/scripts/../app/g16/l1.exe PID=     10140.
  
 Copyright (c) 1988,1990,1992,1993,1995,1998,2003,2009,2016,
            Gaussian, Inc.  All Rights Reserved.
  
 This is part of the Gaussian(R) 16 program.  It is based on
 the Gaussian(R) 09 system (copyright 2009, Gaussian, Inc.),
 the Gaussian(R) 03 system (copyright 2003, Gaussian, Inc.),
 the Gaussian(R) 98 system (copyright 1998, Gaussian, Inc.),
 the Gaussian(R) 94 system (copyright 1995, Gaussian, Inc.),
 the Gaussian 92(TM) system (copyright 1992, Gaussian, Inc.),
 the Gaussian 90(TM) system (copyright 1990, Gaussian, Inc.),
 the Gaussian 88(TM) system (copyright 1988, Gaussian, Inc.),
 the Gaussian 86(TM) system (copyright 1986, Carnegie Mellon
 University), and the Gaussian 82(TM) system (copyright 1983,
 Carnegie Mellon University). Gaussian is a federally registered
 trademark of Gaussian, Inc.
  
 This software contains proprietary and confidential information,
 including trade secrets, belonging to Gaussian, Inc.
  
 This software is provided under written license and may be
 used, copied, transmitted, or stored only in accord with that
 written license.
  
 The following legend is applicable only to US Government
 contracts under FAR:
  
                    RESTRICTED RIGHTS LEGEND
  
 Use, reproduction and disclosure by the US Government is
 subject to restrictions as set forth in subparagraphs (a)
 and (c) of the Commercial Computer Software - Restricted
 Rights clause in FAR 52.227-19.
  
 Gaussian, Inc.
 340 Quinnipiac St., Bldg. 40, Wallingford CT 06492
  
  
 ---------------------------------------------------------------
 Warning -- This program may not be used in any manner that
 competes with the business of Gaussian, Inc. or will provide
 assistance to any competitor of Gaussian, Inc.  The licensee
 of this program is prohibited from giving any competitor of
 Gaussian, Inc. access to this program.  By using this program,
 the user acknowledges that Gaussian, Inc. is engaged in the
 business of creating and licensing software in the field of
 computational chemistry and represents and warrants to the
 licensee that it is not a competitor of Gaussian, Inc. and that
 it will not use this program in any manner prohibited above.
 ---------------------------------------------------------------
  

 Cite this work as:
 Gaussian 16, Revision A.03,
 M. J. Frisch, G. W. Trucks, H. B. Schlegel, G. E. Scuseria, 
 M. A. Robb, J. R. Cheeseman, G. Scalmani, V. Barone, 
 G. A. Petersson, H. Nakatsuji, X. Li, M. Caricato, A. V. Marenich, 
 J. Bloino, B. G. Janesko, R. Gomperts, B. Mennucci, H. P. Hratchian, 
 J. V. Ortiz, A. F. Izmaylov, J. L. Sonnenberg, D. Williams-Young, 
 F. Ding, F. Lipparini, F. Egidi, J. Goings, B. Peng, A. Petrone, 
 T. Henderson, D. Ranasinghe, V. G. Zakrzewski, J. Gao, N. Rega, 
 G. Zheng, W. Liang, M. Hada, M. Ehara, K. Toyota, R. Fukuda, 
 J. Hasegawa, M. Ishida, T. Nakajima, Y. Honda, O. Kitao, H. Nakai, 
 T. Vreven, K. Throssell, J. A. Montgomery, Jr., J. E. Peralta, 
 F. Ogliaro, M. J. Bearpark, J. J. Heyd, E. N. Brothers, K. N. Kudin, 
 V. N. Staroverov, T. A. Keith, R. Kobayashi, J. Normand, 
 K. Raghavachari, A. P. Rendell, J. C. Burant, S. S. Iyengar, 
 J. Tomasi, M. Cossi, J. M. Millam, M. Klene, C. Adamo, R. Cammi, 
 J. W. Ochterski, R. L. Martin, K. Morokuma, O. Farkas, 
 J. B. Foresman, and D. J. Fox, Gaussian, Inc., Wallingford CT, 2016.
 
 ******************************************
 Gaussian 16:  ES64L-G16RevA.03 25-Dec-2016
                10-Oct-2025 
 ******************************************
 %nprocshared=64
 Will use up to   64 processors via shared memory.
 %mem=230GB
 %chk=M100034762_sp.chk
 ----------------------------------------------
 #p M062X/DEF2TZVPP scrf=(solvent=water) em=GD3
 ----------------------------------------------
 1/38=1,172=1/1;
 2/12=2,17=6,18=5,40=1/2;
 3/5=44,7=202,11=2,25=1,30=1,70=2201,72=1,74=-55,124=31/1,2,3;
 4//1;
 5/5=2,38=5,53=1/2;
 6/7=2,8=2,9=2,10=2,28=1/1;
 99/5=1,9=1/99;
 Leave Link    1 at Fri Oct 10 18:34:40 2025, MaxMem= 30870077440 cpu:               5.5 elap:               0.1
 (Enter /work/home/accqbws0vm/apprepo/gaussian/16-hy/scripts/../app/g16/l101.exe)
 ---------------------------------
 Energy calculation for M100034762
 ---------------------------------
 Symbolic Z-matrix:
 Charge =  0 Multiplicity = 1
 C                     2.89196  -4.41196  -0.11084 
 C                     3.77029  -3.20038  -0.1045 
 C                     3.43307  -1.84771  -0.44361 
 N                     4.58601  -1.07141  -0.33476 
 C                     5.62423  -1.85391   0.07503 
 C                     6.91792  -1.25413   0.3206 
 C                     8.11626  -1.88264   0.32129 
 C                     9.4124   -1.2537    0.57039 
 C                     10.58186  -2.05521   0.50764 
 C                     11.84249  -1.53494   0.727 
 C                     12.01356  -0.17279   1.02398 
 O                     13.2586   0.28123   1.22746 
 C                     10.84693   0.63525   1.08888 
 C                     9.57325   0.09981   0.8667 
 N                     10.94426   2.03846   1.39188 
 O                     12.07846   2.53358   1.59605 
 O                     9.92217   2.72394   1.44539 
 C                     5.12628  -3.18178   0.22224 
 I                     6.16924  -4.84404   0.948 
 B                     4.71677   0.40394  -0.80212 
 F                     5.68276   0.51484  -1.80575 
 F                     5.07195   1.22895   0.28152 
 N                     3.32831   0.8315   -1.3372 
 C                     3.02233   2.09163  -1.72883 
 C                     4.05997   3.08358  -2.03692 
 C                     4.19912   4.31216  -1.50539 
 C                     3.46662   4.88721  -0.36714 
 C                     3.17586   6.27413  -0.34366 
 C                     2.49765   6.85901   0.70879 
 C                     2.08934   6.09203   1.81348 
 O                     1.43561   6.71182   2.80753 
 C                     2.41062   4.71013   1.80843 
 C                     3.09534   4.12241   0.73383 
 N                     2.06057   3.87361   2.92183 
 O                     1.44509   4.38246   3.88994 
 O                     2.36477   2.67939   2.90836 
 C                     1.61737   2.16792  -1.89725 
 I                     0.58351   3.8311   -2.62247 
 C                     1.05208   0.92592  -1.58888 
 C                    -0.40926   0.60575  -1.61085 
 C                     2.15495   0.08036  -1.24267 
 C                     2.20951  -1.27182  -0.84342 
 C                     0.96728  -2.08949  -0.8461 
 C                     0.35693  -2.46608   0.35605 
 C                    -0.81748  -3.22097   0.3659 
 C                    -1.38777  -3.6266   -0.84877 
 O                    -2.52568  -4.37169  -0.95788 
 C                    -3.19279  -4.7998    0.24558 
 C                    -4.41414  -5.61511  -0.15166 
 C                    -5.47833  -4.89191  -0.99626 
 C                    -6.12408  -3.65154  -0.34072 
 C                    -5.44345  -2.32239  -0.69877 
 C                    -6.03769  -1.09809   0.00489 
 N                    -7.42053  -0.80882  -0.39245 
 C                    -8.57259  -1.20582   0.19281 
 C                    -9.56961  -0.72171  -0.6311 
 C                    -11.04767  -0.8179   -0.48053 
 O                    -11.49935   0.32452   0.2732 
 C                    -12.84754   0.42009   0.54095 
 C                    -13.81177  -0.50113   0.12947 
 C                    -15.16116  -0.30611   0.46168 
 C                    -15.54416   0.81016   1.20498 
 O                    -16.83966   1.09971   1.5878 
 C                    -17.85767   0.16624   1.20279 
 C                    -19.13903   0.64995   1.70849 
 C                    -20.20891   1.03274   2.11812 
 C                    -14.573    1.73635   1.61654 
 C                    -13.23954   1.54327   1.28791 
 N                    -8.97748  -0.06327  -1.66986 
 N                    -7.67551  -0.12178  -1.52652 
 C                    -0.77688  -3.2628   -2.06055 
 C                     0.3798   -2.49482  -2.05714 
 H                     2.30254  -4.48993   0.80918 
 H                     2.19068  -4.39745  -0.9466 
 H                     3.50319  -5.31392  -0.18804 
 H                     6.88169  -0.18423   0.49775 
 H                     8.16653  -2.94386   0.10208 
 H                     10.47985  -3.1121    0.27886 
 H                     12.72702  -2.16026   0.67613 
 H                     13.18443   1.2464    1.41808 
 H                     8.72442   0.7685    0.93044 
 H                     4.77733   2.77096  -2.79265 
 H                     4.95815   4.95834  -1.94268 
 H                     3.48822   6.89177  -1.18061 
 H                     2.26908   7.91912   0.71297 
 H                     1.24662   6.02914   3.49433 
 H                     3.3643    3.07633   0.80115 
 H                    -0.69494  -0.03416  -0.77393 
 H                    -0.99146   1.5286   -1.55587 
 H                    -0.69779   0.08682  -2.53147 
 H                     0.79637  -2.15928   1.30029 
 H                    -1.27042  -3.48617   1.31318 
 H                    -2.50517  -5.41272   0.84087 
 H                    -3.47014  -3.92407   0.84342 
 H                    -4.07456  -6.50744  -0.69176 
 H                    -4.87063  -5.96945   0.78126 
 H                    -5.05042  -4.61256  -1.96702 
 H                    -6.26193  -5.62635  -1.21479 
 H                    -7.17458  -3.5975   -0.64953 
 H                    -6.13606  -3.77438   0.75132 
 H                    -4.38181  -2.34596  -0.43133 
 H                    -5.48702  -2.16392  -1.78322 
 H                    -6.04225  -1.23125   1.08924 
 H                    -5.45485  -0.20438  -0.22675 
 H                    -8.59465  -1.77039   1.11205 
 H                    -11.5259  -0.82407  -1.46653 
 H                    -11.31868  -1.73968   0.046 
 H                    -13.54252  -1.37686  -0.44853 
 H                    -15.88674  -1.03835   0.12825 
 H                    -17.89677   0.07159   0.1094 
 H                    -17.64094  -0.82767   1.61679 
 H                    -21.1548   1.3736    2.48146 
 H                    -14.88094   2.60214   2.19431 
 H                    -12.48366   2.25524   1.60415 
 H                    -1.22721  -3.58865  -2.99275 
 H                     0.84051  -2.21477  -2.99943 
 
 ITRead=  0  0  0  0  0  0  0  0  0  0  0  0  0  0  0  0  0  0  0  0
 ITRead=  0  0  0  0  0  0  0  0  0  0  0  0  0  0  0  0  0  0  0  0
 ITRead=  0  0  0  0  0  0  0  0  0  0  0  0  0  0  0  0  0  0  0  0
 ITRead=  0  0  0  0  0  0  0  0  0  0  0  0  0  0  0  0  0  0  0  0
 ITRead=  0  0  0  0  0  0  0  0  0  0  0  0  0  0  0  0  0  0  0  0
 ITRead=  0  0  0  0  0  0  0  0  0  0  0  0  0  0  0  0
 MicOpt= -1 -1 -1 -1 -1 -1 -1 -1 -1 -1 -1 -1 -1 -1 -1 -1 -1 -1 -1 -1
 MicOpt= -1 -1 -1 -1 -1 -1 -1 -1 -1 -1 -1 -1 -1 -1 -1 -1 -1 -1 -1 -1
 MicOpt= -1 -1 -1 -1 -1 -1 -1 -1 -1 -1 -1 -1 -1 -1 -1 -1 -1 -1 -1 -1
 MicOpt= -1 -1 -1 -1 -1 -1 -1 -1 -1 -1 -1 -1 -1 -1 -1 -1 -1 -1 -1 -1
 MicOpt= -1 -1 -1 -1 -1 -1 -1 -1 -1 -1 -1 -1 -1 -1 -1 -1 -1 -1 -1 -1
 MicOpt= -1 -1 -1 -1 -1 -1 -1 -1 -1 -1 -1 -1 -1 -1 -1 -1
 NAtoms=    116 NQM=      116 NQMF=       0 NMMI=      0 NMMIF=      0
                NMic=       0 NMicF=      0.
                    Isotopes and Nuclear Properties:
 (Nuclear quadrupole moments (NQMom) in fm**2, nuclear magnetic moments (NMagM)
  in nuclear magnetons)

  Atom         1           2           3           4           5           6           7           8           9          10
 IAtWgt=          12          12          12          14          12          12          12          12          12          12
 AtmWgt=  12.0000000  12.0000000  12.0000000  14.0030740  12.0000000  12.0000000  12.0000000  12.0000000  12.0000000  12.0000000
 NucSpn=           0           0           0           2           0           0           0           0           0           0
 AtZEff=  -0.0000000  -0.0000000  -0.0000000  -0.0000000  -0.0000000  -0.0000000  -0.0000000  -0.0000000  -0.0000000  -0.0000000
 NQMom=    0.0000000   0.0000000   0.0000000   2.0440000   0.0000000   0.0000000   0.0000000   0.0000000   0.0000000   0.0000000
 NMagM=    0.0000000   0.0000000   0.0000000   0.4037610   0.0000000   0.0000000   0.0000000   0.0000000   0.0000000   0.0000000
 AtZNuc=   6.0000000   6.0000000   6.0000000   7.0000000   6.0000000   6.0000000   6.0000000   6.0000000   6.0000000   6.0000000

  Atom        11          12          13          14          15          16          17          18          19          20
 IAtWgt=          12          16          12          12          14          16          16          12         127          11
 AtmWgt=  12.0000000  15.9949146  12.0000000  12.0000000  14.0030740  15.9949146  15.9949146  12.0000000 126.9004000  11.0093053
 NucSpn=           0           0           0           0           2           0           0           0           5           3
 AtZEff=  -0.0000000  -0.0000000  -0.0000000  -0.0000000  -0.0000000  -0.0000000  -0.0000000  -0.0000000  -0.0000000  -0.0000000
 NQMom=    0.0000000   0.0000000   0.0000000   0.0000000   2.0440000   0.0000000   0.0000000   0.0000000 -71.0000000   4.0590000
 NMagM=    0.0000000   0.0000000   0.0000000   0.0000000   0.4037610   0.0000000   0.0000000   0.0000000   2.8132800   2.6886370
 AtZNuc=   6.0000000   8.0000000   6.0000000   6.0000000   7.0000000   8.0000000   8.0000000   6.0000000  53.0000000   5.0000000

  Atom        21          22          23          24          25          26          27          28          29          30
 IAtWgt=          19          19          14          12          12          12          12          12          12          12
 AtmWgt=  18.9984032  18.9984032  14.0030740  12.0000000  12.0000000  12.0000000  12.0000000  12.0000000  12.0000000  12.0000000
 NucSpn=           1           1           2           0           0           0           0           0           0           0
 AtZEff=  -0.0000000  -0.0000000  -0.0000000  -0.0000000  -0.0000000  -0.0000000  -0.0000000  -0.0000000  -0.0000000  -0.0000000
 NQMom=    0.0000000   0.0000000   2.0440000   0.0000000   0.0000000   0.0000000   0.0000000   0.0000000   0.0000000   0.0000000
 NMagM=    2.6288670   2.6288670   0.4037610   0.0000000   0.0000000   0.0000000   0.0000000   0.0000000   0.0000000   0.0000000
 AtZNuc=   9.0000000   9.0000000   7.0000000   6.0000000   6.0000000   6.0000000   6.0000000   6.0000000   6.0000000   6.0000000

  Atom        31          32          33          34          35          36          37          38          39          40
 IAtWgt=          16          12          12          14          16          16          12         127          12          12
 AtmWgt=  15.9949146  12.0000000  12.0000000  14.0030740  15.9949146  15.9949146  12.0000000 126.9004000  12.0000000  12.0000000
 NucSpn=           0           0           0           2           0           0           0           5           0           0
 AtZEff=  -0.0000000  -0.0000000  -0.0000000  -0.0000000  -0.0000000  -0.0000000  -0.0000000  -0.0000000  -0.0000000  -0.0000000
 NQMom=    0.0000000   0.0000000   0.0000000   2.0440000   0.0000000   0.0000000   0.0000000 -71.0000000   0.0000000   0.0000000
 NMagM=    0.0000000   0.0000000   0.0000000   0.4037610   0.0000000   0.0000000   0.0000000   2.8132800   0.0000000   0.0000000
 AtZNuc=   8.0000000   6.0000000   6.0000000   7.0000000   8.0000000   8.0000000   6.0000000  53.0000000   6.0000000   6.0000000

  Atom        41          42          43          44          45          46          47          48          49          50
 IAtWgt=          12          12          12          12          12          12          16          12          12          12
 AtmWgt=  12.0000000  12.0000000  12.0000000  12.0000000  12.0000000  12.0000000  15.9949146  12.0000000  12.0000000  12.0000000
 NucSpn=           0           0           0           0           0           0           0           0           0           0
 AtZEff=  -0.0000000  -0.0000000  -0.0000000  -0.0000000  -0.0000000  -0.0000000  -0.0000000  -0.0000000  -0.0000000  -0.0000000
 NQMom=    0.0000000   0.0000000   0.0000000   0.0000000   0.0000000   0.0000000   0.0000000   0.0000000   0.0000000   0.0000000
 NMagM=    0.0000000   0.0000000   0.0000000   0.0000000   0.0000000   0.0000000   0.0000000   0.0000000   0.0000000   0.0000000
 AtZNuc=   6.0000000   6.0000000   6.0000000   6.0000000   6.0000000   6.0000000   8.0000000   6.0000000   6.0000000   6.0000000

  Atom        51          52          53          54          55          56          57          58          59          60
 IAtWgt=          12          12          12          14          12          12          12          16          12          12
 AtmWgt=  12.0000000  12.0000000  12.0000000  14.0030740  12.0000000  12.0000000  12.0000000  15.9949146  12.0000000  12.0000000
 NucSpn=           0           0           0           2           0           0           0           0           0           0
 AtZEff=  -0.0000000  -0.0000000  -0.0000000  -0.0000000  -0.0000000  -0.0000000  -0.0000000  -0.0000000  -0.0000000  -0.0000000
 NQMom=    0.0000000   0.0000000   0.0000000   2.0440000   0.0000000   0.0000000   0.0000000   0.0000000   0.0000000   0.0000000
 NMagM=    0.0000000   0.0000000   0.0000000   0.4037610   0.0000000   0.0000000   0.0000000   0.0000000   0.0000000   0.0000000
 AtZNuc=   6.0000000   6.0000000   6.0000000   7.0000000   6.0000000   6.0000000   6.0000000   8.0000000   6.0000000   6.0000000

  Atom        61          62          63          64          65          66          67          68          69          70
 IAtWgt=          12          12          16          12          12          12          12          12          14          14
 AtmWgt=  12.0000000  12.0000000  15.9949146  12.0000000  12.0000000  12.0000000  12.0000000  12.0000000  14.0030740  14.0030740
 NucSpn=           0           0           0           0           0           0           0           0           2           2
 AtZEff=  -0.0000000  -0.0000000  -0.0000000  -0.0000000  -0.0000000  -0.0000000  -0.0000000  -0.0000000  -0.0000000  -0.0000000
 NQMom=    0.0000000   0.0000000   0.0000000   0.0000000   0.0000000   0.0000000   0.0000000   0.0000000   2.0440000   2.0440000
 NMagM=    0.0000000   0.0000000   0.0000000   0.0000000   0.0000000   0.0000000   0.0000000   0.0000000   0.4037610   0.4037610
 AtZNuc=   6.0000000   6.0000000   8.0000000   6.0000000   6.0000000   6.0000000   6.0000000   6.0000000   7.0000000   7.0000000

  Atom        71          72          73          74          75          76          77          78          79          80
 IAtWgt=          12          12           1           1           1           1           1           1           1           1
 AtmWgt=  12.0000000  12.0000000   1.0078250   1.0078250   1.0078250   1.0078250   1.0078250   1.0078250   1.0078250   1.0078250
 NucSpn=           0           0           1           1           1           1           1           1           1           1
 AtZEff=  -0.0000000  -0.0000000  -0.0000000  -0.0000000  -0.0000000  -0.0000000  -0.0000000  -0.0000000  -0.0000000  -0.0000000
 NQMom=    0.0000000   0.0000000   0.0000000   0.0000000   0.0000000   0.0000000   0.0000000   0.0000000   0.0000000   0.0000000
 NMagM=    0.0000000   0.0000000   2.7928460   2.7928460   2.7928460   2.7928460   2.7928460   2.7928460   2.7928460   2.7928460
 AtZNuc=   6.0000000   6.0000000   1.0000000   1.0000000   1.0000000   1.0000000   1.0000000   1.0000000   1.0000000   1.0000000

  Atom        81          82          83          84          85          86          87          88          89          90
 IAtWgt=           1           1           1           1           1           1           1           1           1           1
 AtmWgt=   1.0078250   1.0078250   1.0078250   1.0078250   1.0078250   1.0078250   1.0078250   1.0078250   1.0078250   1.0078250
 NucSpn=           1           1           1           1           1           1           1           1           1           1
 AtZEff=  -0.0000000  -0.0000000  -0.0000000  -0.0000000  -0.0000000  -0.0000000  -0.0000000  -0.0000000  -0.0000000  -0.0000000
 NQMom=    0.0000000   0.0000000   0.0000000   0.0000000   0.0000000   0.0000000   0.0000000   0.0000000   0.0000000   0.0000000
 NMagM=    2.7928460   2.7928460   2.7928460   2.7928460   2.7928460   2.7928460   2.7928460   2.7928460   2.7928460   2.7928460
 AtZNuc=   1.0000000   1.0000000   1.0000000   1.0000000   1.0000000   1.0000000   1.0000000   1.0000000   1.0000000   1.0000000

  Atom        91          92          93          94          95          96          97          98          99         100
 IAtWgt=           1           1           1           1           1           1           1           1           1           1
 AtmWgt=   1.0078250   1.0078250   1.0078250   1.0078250   1.0078250   1.0078250   1.0078250   1.0078250   1.0078250   1.0078250
 NucSpn=           1           1           1           1           1           1           1           1           1           1
 AtZEff=  -0.0000000  -0.0000000  -0.0000000  -0.0000000  -0.0000000  -0.0000000  -0.0000000  -0.0000000  -0.0000000  -0.0000000
 NQMom=    0.0000000   0.0000000   0.0000000   0.0000000   0.0000000   0.0000000   0.0000000   0.0000000   0.0000000   0.0000000
 NMagM=    2.7928460   2.7928460   2.7928460   2.7928460   2.7928460   2.7928460   2.7928460   2.7928460   2.7928460   2.7928460
 AtZNuc=   1.0000000   1.0000000   1.0000000   1.0000000   1.0000000   1.0000000   1.0000000   1.0000000   1.0000000   1.0000000

  Atom       101         102         103         104         105         106         107         108         109         110
 IAtWgt=           1           1           1           1           1           1           1           1           1           1
 AtmWgt=   1.0078250   1.0078250   1.0078250   1.0078250   1.0078250   1.0078250   1.0078250   1.0078250   1.0078250   1.0078250
 NucSpn=           1           1           1           1           1           1           1           1           1           1
 AtZEff=  -0.0000000  -0.0000000  -0.0000000  -0.0000000  -0.0000000  -0.0000000  -0.0000000  -0.0000000  -0.0000000  -0.0000000
 NQMom=    0.0000000   0.0000000   0.0000000   0.0000000   0.0000000   0.0000000   0.0000000   0.0000000   0.0000000   0.0000000
 NMagM=    2.7928460   2.7928460   2.7928460   2.7928460   2.7928460   2.7928460   2.7928460   2.7928460   2.7928460   2.7928460
 AtZNuc=   1.0000000   1.0000000   1.0000000   1.0000000   1.0000000   1.0000000   1.0000000   1.0000000   1.0000000   1.0000000

  Atom       111         112         113         114         115         116
 IAtWgt=           1           1           1           1           1           1
 AtmWgt=   1.0078250   1.0078250   1.0078250   1.0078250   1.0078250   1.0078250
 NucSpn=           1           1           1           1           1           1
 AtZEff=  -0.0000000  -0.0000000  -0.0000000  -0.0000000  -0.0000000  -0.0000000
 NQMom=    0.0000000   0.0000000   0.0000000   0.0000000   0.0000000   0.0000000
 NMagM=    2.7928460   2.7928460   2.7928460   2.7928460   2.7928460   2.7928460
 AtZNuc=   1.0000000   1.0000000   1.0000000   1.0000000   1.0000000   1.0000000
 Leave Link  101 at Fri Oct 10 18:34:40 2025, MaxMem= 30870077440 cpu:               8.0 elap:               0.2
 (Enter /work/home/accqbws0vm/apprepo/gaussian/16-hy/scripts/../app/g16/l202.exe)
 Stoichiometry    C51H44BF2I2N7O9
 Framework group  C1[X(C51H44BF2I2N7O9)]
 Deg. of freedom   342
 Full point group                 C1      NOp   1
 Largest Abelian subgroup         C1      NOp   1
 Largest concise Abelian subgroup C1      NOp   1
                         Standard orientation:                         
 ---------------------------------------------------------------------
 Center     Atomic      Atomic             Coordinates (Angstroms)
 Number     Number       Type             X           Y           Z
 ---------------------------------------------------------------------
      1          6           0       -2.891956   -4.411963    0.110839
      2          6           0       -3.770290   -3.200380    0.104502
      3          6           0       -3.433069   -1.847710    0.443611
      4          7           0       -4.586006   -1.071410    0.334755
      5          6           0       -5.624231   -1.853907   -0.075033
      6          6           0       -6.917921   -1.254127   -0.320596
      7          6           0       -8.116259   -1.882638   -0.321288
      8          6           0       -9.412404   -1.253704   -0.570386
      9          6           0      -10.581864   -2.055207   -0.507638
     10          6           0      -11.842494   -1.534938   -0.726995
     11          6           0      -12.013562   -0.172794   -1.023984
     12          8           0      -13.258603    0.281230   -1.227458
     13          6           0      -10.846931    0.635250   -1.088881
     14          6           0       -9.573253    0.099807   -0.866695
     15          7           0      -10.944256    2.038457   -1.391884
     16          8           0      -12.078463    2.533577   -1.596053
     17          8           0       -9.922172    2.723938   -1.445390
     18          6           0       -5.126281   -3.181783   -0.222237
     19         53           0       -6.169242   -4.844035   -0.947995
     20          5           0       -4.716773    0.403936    0.802122
     21          9           0       -5.682756    0.514843    1.805750
     22          9           0       -5.071947    1.228949   -0.281523
     23          7           0       -3.328308    0.831499    1.337204
     24          6           0       -3.022331    2.091634    1.728833
     25          6           0       -4.059974    3.083577    2.036918
     26          6           0       -4.199117    4.312162    1.505394
     27          6           0       -3.466622    4.887205    0.367138
     28          6           0       -3.175861    6.274130    0.343657
     29          6           0       -2.497652    6.859014   -0.708785
     30          6           0       -2.089340    6.092034   -1.813483
     31          8           0       -1.435605    6.711824   -2.807534
     32          6           0       -2.410623    4.710130   -1.808429
     33          6           0       -3.095339    4.122406   -0.733833
     34          7           0       -2.060571    3.873610   -2.921830
     35          8           0       -1.445086    4.382465   -3.889941
     36          8           0       -2.364774    2.679387   -2.908359
     37          6           0       -1.617365    2.167925    1.897252
     38         53           0       -0.583506    3.831102    2.622471
     39          6           0       -1.052075    0.925918    1.588882
     40          6           0        0.409263    0.605748    1.610852
     41          6           0       -2.154948    0.080359    1.242674
     42          6           0       -2.209507   -1.271817    0.843422
     43          6           0       -0.967276   -2.089486    0.846098
     44          6           0       -0.356930   -2.466082   -0.356049
     45          6           0        0.817477   -3.220968   -0.365898
     46          6           0        1.387772   -3.626603    0.848772
     47          8           0        2.525680   -4.371693    0.957881
     48          6           0        3.192792   -4.799798   -0.245578
     49          6           0        4.414138   -5.615105    0.151658
     50          6           0        5.478329   -4.891914    0.996258
     51          6           0        6.124083   -3.651539    0.340722
     52          6           0        5.443450   -2.322387    0.698770
     53          6           0        6.037686   -1.098090   -0.004889
     54          7           0        7.420526   -0.808815    0.392445
     55          6           0        8.572594   -1.205819   -0.192808
     56          6           0        9.569610   -0.721714    0.631097
     57          6           0       11.047665   -0.817902    0.480525
     58          8           0       11.499353    0.324516   -0.273199
     59          6           0       12.847535    0.420086   -0.540949
     60          6           0       13.811769   -0.501128   -0.129472
     61          6           0       15.161163   -0.306111   -0.461684
     62          6           0       15.544157    0.810157   -1.204980
     63          8           0       16.839663    1.099711   -1.587802
     64          6           0       17.857670    0.166237   -1.202793
     65          6           0       19.139034    0.649953   -1.708487
     66          6           0       20.208908    1.032740   -2.118116
     67          6           0       14.572998    1.736351   -1.616538
     68          6           0       13.239538    1.543269   -1.287908
     69          7           0        8.977476   -0.063269    1.669860
     70          7           0        7.675513   -0.121778    1.526522
     71          6           0        0.776879   -3.262797    2.060546
     72          6           0       -0.379801   -2.494824    2.057138
     73          1           0       -2.302538   -4.489932   -0.809182
     74          1           0       -2.190678   -4.397453    0.946604
     75          1           0       -3.503192   -5.313920    0.188042
     76          1           0       -6.881694   -0.184231   -0.497749
     77          1           0       -8.166526   -2.943864   -0.102083
     78          1           0      -10.479848   -3.112101   -0.278856
     79          1           0      -12.727024   -2.160257   -0.676133
     80          1           0      -13.184431    1.246404   -1.418083
     81          1           0       -8.724420    0.768495   -0.930442
     82          1           0       -4.777326    2.770958    2.792654
     83          1           0       -4.958146    4.958343    1.942684
     84          1           0       -3.488219    6.891766    1.180614
     85          1           0       -2.269077    7.919115   -0.712974
     86          1           0       -1.246623    6.029144   -3.494327
     87          1           0       -3.364297    3.076328   -0.801154
     88          1           0        0.694941   -0.034163    0.773931
     89          1           0        0.991455    1.528595    1.555871
     90          1           0        0.697793    0.086815    2.531474
     91          1           0       -0.796372   -2.159276   -1.300285
     92          1           0        1.270422   -3.486167   -1.313178
     93          1           0        2.505173   -5.412715   -0.840870
     94          1           0        3.470140   -3.924072   -0.843415
     95          1           0        4.074563   -6.507435    0.691755
     96          1           0        4.870634   -5.969452   -0.781259
     97          1           0        5.050423   -4.612563    1.967023
     98          1           0        6.261927   -5.626353    1.214788
     99          1           0        7.174577   -3.597503    0.649534
    100          1           0        6.136057   -3.774379   -0.751319
    101          1           0        4.381808   -2.345956    0.431331
    102          1           0        5.487024   -2.163924    1.783218
    103          1           0        6.042246   -1.231251   -1.089243
    104          1           0        5.454852   -0.204383    0.226749
    105          1           0        8.594652   -1.770387   -1.112048
    106          1           0       11.525898   -0.824074    1.466534
    107          1           0       11.318676   -1.739684   -0.045995
    108          1           0       13.542517   -1.376856    0.448533
    109          1           0       15.886743   -1.038349   -0.128253
    110          1           0       17.896769    0.071594   -0.109404
    111          1           0       17.640938   -0.827674   -1.616789
    112          1           0       21.154804    1.373599   -2.481463
    113          1           0       14.880941    2.602141   -2.194310
    114          1           0       12.483662    2.255239   -1.604153
    115          1           0        1.227209   -3.588647    2.992751
    116          1           0       -0.840514   -2.214769    2.999432
 ---------------------------------------------------------------------
 Rotational constants (GHZ):           0.0324625           0.0066477           0.0058731
 Leave Link  202 at Fri Oct 10 18:34:40 2025, MaxMem= 30870077440 cpu:               6.2 elap:               0.1
 (Enter /work/home/accqbws0vm/apprepo/gaussian/16-hy/scripts/../app/g16/l301.exe)
 Standard basis: def2TZVPP (5D, 7F)
 Ernie: Thresh=  0.10000D-02 Tol=  0.10000D-05 Strict=F.
 There are  3298 symmetry adapted cartesian basis functions of A   symmetry.
 There are  2886 symmetry adapted basis functions of A   symmetry.
  2886 basis functions,  4536 primitive gaussians,  3298 cartesian basis functions
   272 alpha electrons      272 beta electrons
       nuclear repulsion energy     11035.7333024195 Hartrees.
 IExCor= 4336 DFT=T Ex+Corr=M062X ExCW=0 ScaHFX=  0.540000
 ScaDFX=  1.000000  1.000000  1.000000  1.000000 ScalE2=  1.000000  1.000000
 IRadAn=      5 IRanWt=     -1 IRanGd=            0 ICorTp=0 IEmpDi=131
 NAtoms=  116 NActive=  116 NUniq=  116 SFac= 1.00D+00 NAtFMM=   60 NAOKFM=T Big=T
 Integral buffers will be    131072 words long.
 Raffenetti 2 integral format.
 Two-electron integral symmetry is turned on.
 R6Disp:  Grimme-D3 Dispersion energy=       -0.0108800389 Hartrees.
 Nuclear repulsion after empirical dispersion term =    11035.7224223806 Hartrees.
 ------------------------------------------------------------------------------
 Polarizable Continuum Model (PCM)
 =================================
 Model                : PCM.
 Atomic radii         : UFF (Universal Force Field).
 Polarization charges : Total charges.
 Charge compensation  : None.
 Solution method      : On-the-fly selection.
 Cavity type          : Scaled VdW (van der Waals Surface) (Alpha=1.100).
 Cavity algorithm     : GePol (No added spheres)
                        Default sphere list used, NSphG=  116.
                        Lebedev-Laikov grids with approx.  5.0 points / Ang**2.
                        Smoothing algorithm: York/Karplus (Gamma=1.0000).
                        Polarization charges: spherical gaussians, with
                                              point-specific exponents (IZeta= 3).
                        Self-potential: point-specific (ISelfS= 7).
                        Self-field    : sphere-specific E.n sum rule (ISelfD= 2).
 Solvent              : Water, Eps=  78.355300 Eps(inf)=   1.777849
 ------------------------------------------------------------------------------
 GePol: Number of generator spheres                  =     116
 GePol: Total number of spheres                      =     116
 GePol: Number of exposed spheres                    =     116 (100.00%)
 GePol: Number of points                             =    8657
 GePol: Average weight of points                     =       0.13
 GePol: Minimum weight of points                     =   0.58D-10
 GePol: Maximum weight of points                     =    0.20577
 GePol: Number of points with low weight             =     586
 GePol: Fraction of low-weight points (<1% of avg)   =       6.77%
 GePol: Cavity surface area                          =   1121.499 Ang**2
 GePol: Cavity volume                                =   1311.134 Ang**3
 Leave Link  301 at Fri Oct 10 18:34:40 2025, MaxMem= 30870077440 cpu:              12.0 elap:               0.2
 (Enter /work/home/accqbws0vm/apprepo/gaussian/16-hy/scripts/../app/g16/l302.exe)
 NPDir=0 NMtPBC=     1 NCelOv=     1 NCel=       1 NClECP=     1 NCelD=      1
         NCelK=      1 NCelE2=     1 NClLst=     1 CellRange=     0.0.
 One-electron integrals computed using PRISM.
 One-electron integral symmetry used in STVInt
   1 Symmetry operations used in ECPInt.
 ECPInt:  NShTT=  568711 NPrTT= 1647947 LenC2=  253687 LenP2D=  478712.
 LDataN:  DoStor=T MaxTD1= 7 Len=  274
 Number of processors reduced to  34 by ecpmxn.
 NBasis=  2886 RedAO= T EigKep=  4.10D-06  NBF=  2886
 NBsUse=  2886 1.00D-06 EigRej= -1.00D+00 NBFU=  2886
 Precomputing XC quadrature grid using
 IXCGrd= 4 IRadAn=           5 IRanWt=          -1 IRanGd=           0 AccXCQ= 0.00D+00.
 Defaulting to unpruned grid for atomic number  53.
 Defaulting to unpruned grid for atomic number  53.
 Generated NRdTot=       0 NPtTot=           0 NUsed=           0 NTot=          32
 NSgBfM=  2305  2295  2295  2299  2305 MxSgAt=   116 MxSgA2=   115.
 Leave Link  302 at Fri Oct 10 18:35:11 2025, MaxMem= 30870077440 cpu:            1947.0 elap:              31.1
 (Enter /work/home/accqbws0vm/apprepo/gaussian/16-hy/scripts/../app/g16/l303.exe)
 DipDrv:  MaxL=1.
 Leave Link  303 at Fri Oct 10 18:35:13 2025, MaxMem= 30870077440 cpu:              63.7 elap:               1.2
 (Enter /work/home/accqbws0vm/apprepo/gaussian/16-hy/scripts/../app/g16/l401.exe)
 ExpMin= 6.06D-02 ExpMax= 3.55D+04 ExpMxC= 1.21D+03 IAcc=3 IRadAn=         5 AccDes= 0.00D+00
 Harris functional with IExCor= 1009 and IRadAn=       5 diagonalized for initial guess.
 HarFok:  IExCor= 1009 AccDes= 0.00D+00 IRadAn=         5 IDoV= 1 UseB2=F ITyADJ=14
 ICtDFT=  3500011 ScaDFX=  1.000000  1.000000  1.000000  1.000000
 Defaulting to unpruned grid for atomic number  53.
 FoFCou: FMM=F IPFlag=           0 FMFlag=      100000 FMFlg1=        2001
         NFxFlg=           0 DoJE=T BraDBF=F KetDBF=T FulRan=T
         wScrn=  0.000000 ICntrl=       500 IOpCl=  0 I1Cent=   200000004 NGrid=           0
         NMat0=    1 NMatS0=      1 NMatT0=    0 NMatD0=    1 NMtDS0=    0 NMtDT0=    0
 Petite list used in FoFCou.
 Harris En= -3848.81431022871    
 JPrj=0 DoOrth=F DoCkMO=F.
 Leave Link  401 at Fri Oct 10 18:35:37 2025, MaxMem= 30870077440 cpu:            1532.8 elap:              24.1
 (Enter /work/home/accqbws0vm/apprepo/gaussian/16-hy/scripts/../app/g16/l502.exe)
 Integral symmetry usage will be decided dynamically.
 Closed shell SCF:
 Using DIIS extrapolation, IDIIS=  1040.
 NGot= 30870077440 LenX= 30848085252 LenY= 30837205150
 Requested convergence on RMS density matrix=1.00D-08 within 128 cycles.
 Requested convergence on MAX density matrix=1.00D-06.
 Requested convergence on             energy=1.00D-06.
 No special actions if energy rises.
 Fock matrices will be formed incrementally for  20 cycles.

 Cycle   1  Pass 1  IDiag  1:
 FoFJK:  IHMeth= 1 ICntrl=       0 DoSepK=F KAlg= 0 I1Cent=           0 FoldK=F
 IRaf= 410000000 NMat=       1 IRICut=       1 DoRegI=T DoRafI=F ISym2E= 0 IDoP0=0 IntGTp=1.
 FoFCou: FMM=T IPFlag=           0 FMFlag=      100000 FMFlg1=        2001
         NFxFlg=           0 DoJE=F BraDBF=F KetDBF=F FulRan=T
         wScrn=  0.000000 ICntrl=         0 IOpCl=  0 I1Cent=           0 NGrid=           0
         NMat0=    1 NMatS0=      1 NMatT0=    0 NMatD0=    1 NMtDS0=    0 NMtDT0=    0
 Symmetry not used in FoFCou.
 FMM levels:  10  Number of levels for PrismC:   9
 Defaulting to unpruned grid for atomic number  53.
 Defaulting to unpruned grid for atomic number  53.
 Defaulting to unpruned grid for atomic number  53.
 Defaulting to unpruned grid for atomic number  53.
 Defaulting to unpruned grid for atomic number  53.
 Defaulting to unpruned grid for atomic number  53.
 Defaulting to unpruned grid for atomic number  53.
 Defaulting to unpruned grid for atomic number  53.
 Defaulting to unpruned grid for atomic number  53.
 Defaulting to unpruned grid for atomic number  53.
 Defaulting to unpruned grid for atomic number  53.
 Defaulting to unpruned grid for atomic number  53.
 Defaulting to unpruned grid for atomic number  53.
 Defaulting to unpruned grid for atomic number  53.
 Defaulting to unpruned grid for atomic number  53.
 Defaulting to unpruned grid for atomic number  53.
 Defaulting to unpruned grid for atomic number  53.
 Defaulting to unpruned grid for atomic number  53.
 Defaulting to unpruned grid for atomic number  53.
 Defaulting to unpruned grid for atomic number  53.
 Defaulting to unpruned grid for atomic number  53.
 Defaulting to unpruned grid for atomic number  53.
 Defaulting to unpruned grid for atomic number  53.
 Defaulting to unpruned grid for atomic number  53.
 Defaulting to unpruned grid for atomic number  53.
 Defaulting to unpruned grid for atomic number  53.
 Defaulting to unpruned grid for atomic number  53.
 Defaulting to unpruned grid for atomic number  53.
 Defaulting to unpruned grid for atomic number  53.
 Defaulting to unpruned grid for atomic number  53.
 Defaulting to unpruned grid for atomic number  53.
 Defaulting to unpruned grid for atomic number  53.
 Defaulting to unpruned grid for atomic number  53.
 Defaulting to unpruned grid for atomic number  53.
 Defaulting to unpruned grid for atomic number  53.
 Defaulting to unpruned grid for atomic number  53.
 Defaulting to unpruned grid for atomic number  53.
 Defaulting to unpruned grid for atomic number  53.
 Defaulting to unpruned grid for atomic number  53.
 Defaulting to unpruned grid for atomic number  53.
 Defaulting to unpruned grid for atomic number  53.
 Defaulting to unpruned grid for atomic number  53.
 Defaulting to unpruned grid for atomic number  53.
 Defaulting to unpruned grid for atomic number  53.
 Defaulting to unpruned grid for atomic number  53.
 Defaulting to unpruned grid for atomic number  53.
 Defaulting to unpruned grid for atomic number  53.
 Defaulting to unpruned grid for atomic number  53.
 Defaulting to unpruned grid for atomic number  53.
 Defaulting to unpruned grid for atomic number  53.
 Defaulting to unpruned grid for atomic number  53.
 Defaulting to unpruned grid for atomic number  53.
 Defaulting to unpruned grid for atomic number  53.
 Defaulting to unpruned grid for atomic number  53.
 Defaulting to unpruned grid for atomic number  53.
 Defaulting to unpruned grid for atomic number  53.
 Defaulting to unpruned grid for atomic number  53.
 Defaulting to unpruned grid for atomic number  53.
 Defaulting to unpruned grid for atomic number  53.
 Defaulting to unpruned grid for atomic number  53.
 Defaulting to unpruned grid for atomic number  53.
 Defaulting to unpruned grid for atomic number  53.
 Defaulting to unpruned grid for atomic number  53.
 Defaulting to unpruned grid for atomic number  53.
 Inv3:  Mode=1 IEnd=   224830947.
 Iteration    1 A*A^-1 deviation from unit magnitude is 3.89D-15 for   3694.
 Iteration    1 A*A^-1 deviation from orthogonality  is 2.80D-15 for   5523   2234.
 Iteration    1 A^-1*A deviation from unit magnitude is 3.77D-15 for   8499.
 Iteration    1 A^-1*A deviation from orthogonality  is 2.19D-15 for   5163   3274.
 E= -3848.16104764555    
 DIIS: error= 1.89D-02 at cycle   1 NSaved=   1.
 NSaved= 1 IEnMin= 1 EnMin= -3848.16104764555     IErMin= 1 ErrMin= 1.89D-02
 ErrMax= 1.89D-02  0.00D+00 EMaxC= 1.00D-01 BMatC= 2.33D+00 BMatP= 2.33D+00
 IDIUse=3 WtCom= 8.11D-01 WtEn= 1.89D-01
 Coeff-Com:  0.100D+01
 Coeff-En:   0.100D+01
 Coeff:      0.100D+01
 Gap=     0.265 Goal=   None    Shift=    0.000
 GapD=    0.265 DampG=1.000 DampE=0.500 DampFc=0.5000 IDamp=-1.
 Damping current iteration by 5.00D-01
 RMSDP=1.34D-03 MaxDP=2.53D-01              OVMax= 2.61D-01

 Cycle   2  Pass 1  IDiag  1:
 RMSU=  6.70D-04    CP:  1.00D+00
 E= -3848.98590226113     Delta-E=       -0.824854615581 Rises=F Damp=T
 DIIS: error= 5.84D-03 at cycle   2 NSaved=   2.
 NSaved= 2 IEnMin= 2 EnMin= -3848.98590226113     IErMin= 2 ErrMin= 5.84D-03
 ErrMax= 5.84D-03  0.00D+00 EMaxC= 1.00D-01 BMatC= 2.33D-01 BMatP= 2.33D+00
 IDIUse=3 WtCom= 9.42D-01 WtEn= 5.84D-02
 Coeff-Com: -0.496D-01 0.105D+01
 Coeff-En:   0.000D+00 0.100D+01
 Coeff:     -0.467D-01 0.105D+01
 Gap=     0.188 Goal=   None    Shift=    0.000
 RMSDP=5.73D-04 MaxDP=1.49D-01 DE=-8.25D-01 OVMax= 2.05D-01

 Cycle   3  Pass 1  IDiag  1:
 RMSU=  5.38D-04    CP:  9.95D-01  1.29D+00
 E= -3849.78972018249     Delta-E=       -0.803817921362 Rises=F Damp=F
 DIIS: error= 8.77D-03 at cycle   3 NSaved=   3.
 NSaved= 3 IEnMin= 3 EnMin= -3849.78972018249     IErMin= 2 ErrMin= 5.84D-03
 ErrMax= 8.77D-03  0.00D+00 EMaxC= 1.00D-01 BMatC= 1.34D-01 BMatP= 2.33D-01
 IDIUse=3 WtCom= 9.12D-01 WtEn= 8.77D-02
 Coeff-Com: -0.110D+00 0.480D+00 0.630D+00
 Coeff-En:   0.000D+00 0.000D+00 0.100D+01
 Coeff:     -0.100D+00 0.438D+00 0.663D+00
 Gap=     0.145 Goal=   None    Shift=    0.000
 RMSDP=1.63D-04 MaxDP=3.28D-02 DE=-8.04D-01 OVMax= 7.69D-02

 Cycle   4  Pass 1  IDiag  1:
 RMSU=  1.62D-04    CP:  9.94D-01  1.27D+00  9.92D-01
 E= -3849.87410835630     Delta-E=       -0.084388173806 Rises=F Damp=F
 DIIS: error= 2.79D-03 at cycle   4 NSaved=   4.
 NSaved= 4 IEnMin= 4 EnMin= -3849.87410835630     IErMin= 4 ErrMin= 2.79D-03
 ErrMax= 2.79D-03  0.00D+00 EMaxC= 1.00D-01 BMatC= 2.42D-02 BMatP= 1.34D-01
 IDIUse=3 WtCom= 9.72D-01 WtEn= 2.79D-02
 Coeff-Com: -0.368D-01 0.949D-01 0.342D+00 0.600D+00
 Coeff-En:   0.000D+00 0.000D+00 0.135D+00 0.865D+00
 Coeff:     -0.358D-01 0.923D-01 0.337D+00 0.607D+00
 Gap=     0.148 Goal=   None    Shift=    0.000
 RMSDP=6.22D-05 MaxDP=9.79D-03 DE=-8.44D-02 OVMax= 1.92D-02

 Cycle   5  Pass 1  IDiag  1:
 RMSU=  4.71D-05    CP:  9.95D-01  1.29D+00  9.99D-01  7.68D-01
 E= -3849.89217541398     Delta-E=       -0.018067057677 Rises=F Damp=F
 DIIS: error= 6.21D-04 at cycle   5 NSaved=   5.
 NSaved= 5 IEnMin= 5 EnMin= -3849.89217541398     IErMin= 5 ErrMin= 6.21D-04
 ErrMax= 6.21D-04  0.00D+00 EMaxC= 1.00D-01 BMatC= 1.04D-03 BMatP= 2.42D-02
 IDIUse=3 WtCom= 9.94D-01 WtEn= 6.21D-03
 Coeff-Com: -0.116D-01 0.214D-01 0.130D+00 0.290D+00 0.570D+00
 Coeff-En:   0.000D+00 0.000D+00 0.000D+00 0.000D+00 0.100D+01
 Coeff:     -0.116D-01 0.212D-01 0.130D+00 0.288D+00 0.573D+00
 Gap=     0.148 Goal=   None    Shift=    0.000
 RMSDP=2.13D-05 MaxDP=8.95D-03 DE=-1.81D-02 OVMax= 8.66D-03

 Cycle   6  Pass 1  IDiag  1:
 RMSU=  1.95D-05    CP:  9.95D-01  1.30D+00  1.01D+00  7.93D-01  9.45D-01
 E= -3849.89290794749     Delta-E=       -0.000732533512 Rises=F Damp=F
 DIIS: error= 2.91D-04 at cycle   6 NSaved=   6.
 NSaved= 6 IEnMin= 6 EnMin= -3849.89290794749     IErMin= 6 ErrMin= 2.91D-04
 ErrMax= 2.91D-04  0.00D+00 EMaxC= 1.00D-01 BMatC= 1.56D-04 BMatP= 1.04D-03
 IDIUse=3 WtCom= 9.97D-01 WtEn= 2.91D-03
 Coeff-Com: -0.187D-02 0.569D-03 0.298D-01 0.822D-01 0.307D+00 0.582D+00
 Coeff-En:   0.000D+00 0.000D+00 0.000D+00 0.000D+00 0.177D-01 0.982D+00
 Coeff:     -0.187D-02 0.568D-03 0.297D-01 0.820D-01 0.306D+00 0.583D+00
 Gap=     0.149 Goal=   None    Shift=    0.000
 RMSDP=6.75D-06 MaxDP=2.00D-03 DE=-7.33D-04 OVMax= 3.50D-03

 Cycle   7  Pass 1  IDiag  1:
 RMSU=  5.22D-06    CP:  9.95D-01  1.30D+00  1.01D+00  7.98D-01  1.02D+00
                    CP:  1.03D+00
 E= -3849.89302763358     Delta-E=       -0.000119686087 Rises=F Damp=F
 DIIS: error= 8.28D-05 at cycle   7 NSaved=   7.
 NSaved= 7 IEnMin= 7 EnMin= -3849.89302763358     IErMin= 7 ErrMin= 8.28D-05
 ErrMax= 8.28D-05  0.00D+00 EMaxC= 1.00D-01 BMatC= 1.83D-05 BMatP= 1.56D-04
 IDIUse=1 WtCom= 1.00D+00 WtEn= 0.00D+00
 Coeff-Com:  0.131D-02-0.381D-02-0.960D-02-0.140D-01 0.433D-01 0.275D+00
 Coeff-Com:  0.708D+00
 Coeff:      0.131D-02-0.381D-02-0.960D-02-0.140D-01 0.433D-01 0.275D+00
 Coeff:      0.708D+00
 Gap=     0.149 Goal=   None    Shift=    0.000
 RMSDP=4.81D-06 MaxDP=2.96D-03 DE=-1.20D-04 OVMax= 1.30D-03

 Cycle   8  Pass 1  IDiag  1:
 RMSU=  2.83D-06    CP:  9.95D-01  1.30D+00  1.01D+00  8.06D-01  1.06D+00
                    CP:  1.17D+00  1.13D+00
 E= -3849.89304679610     Delta-E=       -0.000019162524 Rises=F Damp=F
 DIIS: error= 1.66D-05 at cycle   8 NSaved=   8.
 NSaved= 8 IEnMin= 8 EnMin= -3849.89304679610     IErMin= 8 ErrMin= 1.66D-05
 ErrMax= 1.66D-05  0.00D+00 EMaxC= 1.00D-01 BMatC= 1.84D-06 BMatP= 1.83D-05
 IDIUse=1 WtCom= 1.00D+00 WtEn= 0.00D+00
 Coeff-Com:  0.721D-03-0.151D-02-0.725D-02-0.159D-01-0.230D-01 0.260D-01
 Coeff-Com:  0.276D+00 0.745D+00
 Coeff:      0.721D-03-0.151D-02-0.725D-02-0.159D-01-0.230D-01 0.260D-01
 Coeff:      0.276D+00 0.745D+00
 Gap=     0.149 Goal=   None    Shift=    0.000
 RMSDP=1.75D-06 MaxDP=9.70D-04 DE=-1.92D-05 OVMax= 5.99D-04

 Cycle   9  Pass 1  IDiag  1:
 RMSU=  9.61D-07    CP:  9.95D-01  1.30D+00  1.01D+00  8.07D-01  1.08D+00
                    CP:  1.22D+00  1.23D+00  1.11D+00
 E= -3849.89304942999     Delta-E=       -0.000002633888 Rises=F Damp=F
 DIIS: error= 4.54D-06 at cycle   9 NSaved=   9.
 NSaved= 9 IEnMin= 9 EnMin= -3849.89304942999     IErMin= 9 ErrMin= 4.54D-06
 ErrMax= 4.54D-06  0.00D+00 EMaxC= 1.00D-01 BMatC= 2.80D-07 BMatP= 1.84D-06
 IDIUse=1 WtCom= 1.00D+00 WtEn= 0.00D+00
 Coeff-Com:  0.152D-03-0.211D-03-0.193D-02-0.526D-02-0.142D-01-0.195D-01
 Coeff-Com:  0.366D-01 0.314D+00 0.690D+00
 Coeff:      0.152D-03-0.211D-03-0.193D-02-0.526D-02-0.142D-01-0.195D-01
 Coeff:      0.366D-01 0.314D+00 0.690D+00
 Gap=     0.150 Goal=   None    Shift=    0.000
 RMSDP=6.49D-07 MaxDP=3.59D-04 DE=-2.63D-06 OVMax= 2.41D-04

 Cycle  10  Pass 1  IDiag  1:
 RMSU=  3.56D-07    CP:  9.95D-01  1.30D+00  1.01D+00  8.07D-01  1.08D+00
                    CP:  1.24D+00  1.26D+00  1.24D+00  1.06D+00
 E= -3849.89304982395     Delta-E=       -0.000000393966 Rises=F Damp=F
 DIIS: error= 1.96D-06 at cycle  10 NSaved=  10.
 NSaved=10 IEnMin=10 EnMin= -3849.89304982395     IErMin=10 ErrMin= 1.96D-06
 ErrMax= 1.96D-06  0.00D+00 EMaxC= 1.00D-01 BMatC= 4.46D-08 BMatP= 2.80D-07
 IDIUse=1 WtCom= 1.00D+00 WtEn= 0.00D+00
 Coeff-Com: -0.656D-04 0.185D-03 0.523D-03 0.674D-03-0.162D-02-0.126D-01
 Coeff-Com: -0.356D-01-0.486D-02 0.286D+00 0.767D+00
 Coeff:     -0.656D-04 0.185D-03 0.523D-03 0.674D-03-0.162D-02-0.126D-01
 Coeff:     -0.356D-01-0.486D-02 0.286D+00 0.767D+00
 Gap=     0.150 Goal=   None    Shift=    0.000
 RMSDP=3.67D-07 MaxDP=2.31D-04 DE=-3.94D-07 OVMax= 1.20D-04

 Cycle  11  Pass 1  IDiag  1:
 RMSU=  1.56D-07    CP:  9.95D-01  1.30D+00  1.01D+00  8.08D-01  1.08D+00
                    CP:  1.24D+00  1.28D+00  1.31D+00  1.19D+00  1.10D+00
 E= -3849.89304989662     Delta-E=       -0.000000072670 Rises=F Damp=F
 DIIS: error= 8.19D-07 at cycle  11 NSaved=  11.
 NSaved=11 IEnMin=11 EnMin= -3849.89304989662     IErMin=11 ErrMin= 8.19D-07
 ErrMax= 8.19D-07  0.00D+00 EMaxC= 1.00D-01 BMatC= 9.11D-09 BMatP= 4.46D-08
 IDIUse=1 WtCom= 1.00D+00 WtEn= 0.00D+00
 Coeff-Com: -0.483D-04 0.109D-03 0.499D-03 0.101D-02 0.108D-02-0.340D-02
 Coeff-Com: -0.218D-01-0.430D-01 0.396D-01 0.374D+00 0.651D+00
 Coeff:     -0.483D-04 0.109D-03 0.499D-03 0.101D-02 0.108D-02-0.340D-02
 Coeff:     -0.218D-01-0.430D-01 0.396D-01 0.374D+00 0.651D+00
 Gap=     0.150 Goal=   None    Shift=    0.000
 RMSDP=7.52D-08 MaxDP=1.50D-05 DE=-7.27D-08 OVMax= 5.10D-05

 Cycle  12  Pass 1  IDiag  1:
 RMSU=  5.41D-08    CP:  9.95D-01  1.30D+00  1.01D+00  8.08D-01  1.08D+00
                    CP:  1.24D+00  1.29D+00  1.31D+00  1.22D+00  1.19D+00
                    CP:  9.88D-01
 E= -3849.89304990909     Delta-E=       -0.000000012469 Rises=F Damp=F
 DIIS: error= 3.51D-07 at cycle  12 NSaved=  12.
 NSaved=12 IEnMin=12 EnMin= -3849.89304990909     IErMin=12 ErrMin= 3.51D-07
 ErrMax= 3.51D-07  0.00D+00 EMaxC= 1.00D-01 BMatC= 1.29D-09 BMatP= 9.11D-09
 IDIUse=1 WtCom= 1.00D+00 WtEn= 0.00D+00
 Coeff-Com: -0.112D-04 0.205D-04 0.149D-03 0.367D-03 0.755D-03 0.346D-03
 Coeff-Com: -0.482D-02-0.191D-01-0.285D-01 0.493D-01 0.301D+00 0.700D+00
 Coeff:     -0.112D-04 0.205D-04 0.149D-03 0.367D-03 0.755D-03 0.346D-03
 Coeff:     -0.482D-02-0.191D-01-0.285D-01 0.493D-01 0.301D+00 0.700D+00
 Gap=     0.150 Goal=   None    Shift=    0.000
 RMSDP=5.04D-08 MaxDP=3.18D-05 DE=-1.25D-08 OVMax= 2.04D-05

 Cycle  13  Pass 1  IDiag  1:
 RMSU=  2.39D-08    CP:  9.95D-01  1.30D+00  1.01D+00  8.08D-01  1.08D+00
                    CP:  1.24D+00  1.29D+00  1.32D+00  1.24D+00  1.23D+00
                    CP:  1.12D+00  1.08D+00
 E= -3849.89304991094     Delta-E=       -0.000000001846 Rises=F Damp=F
 DIIS: error= 1.36D-07 at cycle  13 NSaved=  13.
 NSaved=13 IEnMin=13 EnMin= -3849.89304991094     IErMin=13 ErrMin= 1.36D-07
 ErrMax= 1.36D-07  0.00D+00 EMaxC= 1.00D-01 BMatC= 1.91D-10 BMatP= 1.29D-09
 IDIUse=1 WtCom= 1.00D+00 WtEn= 0.00D+00
 Coeff-Com:  0.281D-05-0.812D-05-0.127D-04 0.219D-05 0.169D-03 0.678D-03
 Coeff-Com:  0.130D-02-0.111D-02-0.186D-01-0.357D-01 0.380D-01 0.308D+00
 Coeff-Com:  0.707D+00
 Coeff:      0.281D-05-0.812D-05-0.127D-04 0.219D-05 0.169D-03 0.678D-03
 Coeff:      0.130D-02-0.111D-02-0.186D-01-0.357D-01 0.380D-01 0.308D+00
 Coeff:      0.707D+00
 Gap=     0.150 Goal=   None    Shift=    0.000
 RMSDP=1.64D-08 MaxDP=3.15D-06 DE=-1.85D-09 OVMax= 1.28D-05

 Cycle  14  Pass 1  IDiag  1:
 RMSU=  1.13D-08    CP:  9.95D-01  1.30D+00  1.01D+00  8.08D-01  1.08D+00
                    CP:  1.24D+00  1.29D+00  1.32D+00  1.24D+00  1.24D+00
                    CP:  1.15D+00  1.25D+00  1.10D+00
 E= -3849.89304991190     Delta-E=       -0.000000000959 Rises=F Damp=F
 DIIS: error= 6.38D-08 at cycle  14 NSaved=  14.
 NSaved=14 IEnMin=14 EnMin= -3849.89304991190     IErMin=14 ErrMin= 6.38D-08
 ErrMax= 6.38D-08  0.00D+00 EMaxC= 1.00D-01 BMatC= 4.13D-11 BMatP= 1.91D-10
 IDIUse=1 WtCom= 1.00D+00 WtEn= 0.00D+00
 Coeff-Com:  0.310D-05-0.698D-05-0.322D-04-0.645D-04-0.577D-04 0.220D-03
 Coeff-Com:  0.141D-02 0.297D-02-0.343D-02-0.261D-01-0.411D-01-0.440D-02
 Coeff-Com:  0.321D+00 0.749D+00
 Coeff:      0.310D-05-0.698D-05-0.322D-04-0.645D-04-0.577D-04 0.220D-03
 Coeff:      0.141D-02 0.297D-02-0.343D-02-0.261D-01-0.411D-01-0.440D-02
 Coeff:      0.321D+00 0.749D+00
 Gap=     0.150 Goal=   None    Shift=    0.000
 RMSDP=1.07D-08 MaxDP=4.18D-06 DE=-9.59D-10 OVMax= 8.54D-06

 Cycle  15  Pass 1  IDiag  1:
 RMSU=  4.85D-09    CP:  9.95D-01  1.30D+00  1.01D+00  8.08D-01  1.08D+00
                    CP:  1.24D+00  1.29D+00  1.32D+00  1.24D+00  1.24D+00
                    CP:  1.18D+00  1.31D+00  1.31D+00  1.28D+00
 E= -3849.89304991176     Delta-E=        0.000000000135 Rises=F Damp=F
 DIIS: error= 3.00D-08 at cycle  15 NSaved=  15.
 NSaved=15 IEnMin=14 EnMin= -3849.89304991190     IErMin=15 ErrMin= 3.00D-08
 ErrMax= 3.00D-08  0.00D+00 EMaxC= 1.00D-01 BMatC= 8.62D-12 BMatP= 4.13D-11
 IDIUse=1 WtCom= 1.00D+00 WtEn= 0.00D+00
 Coeff-Com:  0.768D-06-0.146D-05-0.115D-04-0.281D-04-0.541D-04-0.252D-04
 Coeff-Com:  0.383D-03 0.160D-02 0.228D-02-0.417D-02-0.247D-01-0.625D-01
 Coeff-Com:  0.619D-02 0.341D+00 0.740D+00
 Coeff:      0.768D-06-0.146D-05-0.115D-04-0.281D-04-0.541D-04-0.252D-04
 Coeff:      0.383D-03 0.160D-02 0.228D-02-0.417D-02-0.247D-01-0.625D-01
 Coeff:      0.619D-02 0.341D+00 0.740D+00
 Gap=     0.150 Goal=   None    Shift=    0.000
 RMSDP=5.38D-09 MaxDP=1.72D-06 DE= 1.35D-10 OVMax= 4.76D-06

 Cycle  16  Pass 1  IDiag  1:
 RMSU=  2.24D-09    CP:  9.95D-01  1.30D+00  1.01D+00  8.08D-01  1.08D+00
                    CP:  1.24D+00  1.29D+00  1.32D+00  1.24D+00  1.24D+00
                    CP:  1.18D+00  1.35D+00  1.39D+00  1.56D+00  1.30D+00
 E= -3849.89304991197     Delta-E=       -0.000000000204 Rises=F Damp=F
 DIIS: error= 1.39D-08 at cycle  16 NSaved=  16.
 NSaved=16 IEnMin=16 EnMin= -3849.89304991197     IErMin=16 ErrMin= 1.39D-08
 ErrMax= 1.39D-08  0.00D+00 EMaxC= 1.00D-01 BMatC= 1.53D-12 BMatP= 8.62D-12
 IDIUse=1 WtCom= 1.00D+00 WtEn= 0.00D+00
 Coeff-Com: -0.524D-06 0.126D-05 0.389D-05 0.563D-05-0.912D-05-0.702D-04
 Coeff-Com: -0.236D-03-0.188D-03 0.177D-02 0.515D-02 0.153D-02-0.232D-01
 Coeff-Com: -0.836D-01-0.739D-01 0.268D+00 0.905D+00
 Coeff:     -0.524D-06 0.126D-05 0.389D-05 0.563D-05-0.912D-05-0.702D-04
 Coeff:     -0.236D-03-0.188D-03 0.177D-02 0.515D-02 0.153D-02-0.232D-01
 Coeff:     -0.836D-01-0.739D-01 0.268D+00 0.905D+00
 Gap=     0.150 Goal=   None    Shift=    0.000
 RMSDP=3.55D-09 MaxDP=8.29D-07 DE=-2.04D-10 OVMax= 3.50D-06

 Error on total polarization charges =  0.03308
 SCF Done:  E(RM062X) =  -3849.89304991     A.U. after   16 cycles
            NFock= 16  Conv=0.35D-08     -V/T= 2.1113
 KE= 3.464212095604D+03 PE=-3.092463126295D+04 EE= 1.257480369506D+04
 Leave Link  502 at Fri Oct 10 19:12:47 2025, MaxMem= 30870077440 cpu:          139992.2 elap:            2230.1
 (Enter /work/home/accqbws0vm/apprepo/gaussian/16-hy/scripts/../app/g16/l601.exe)
 Copying SCF densities to generalized density rwf, IOpCl= 0 IROHF=0.
 Hyperfine terms turned off by default for NAtoms > 100.

 **********************************************************************

            Population analysis using the SCF density.

 **********************************************************************

 Orbital symmetries:
       Occupied  (A) (A) (A) (A) (A) (A) (A) (A) (A) (A) (A) (A)
                 (A) (A) (A) (A) (A) (A) (A) (A) (A) (A) (A) (A)
                 (A) (A) (A) (A) (A) (A) (A) (A) (A) (A) (A) (A)
                 (A) (A) (A) (A) (A) (A) (A) (A) (A) (A) (A) (A)
                 (A) (A) (A) (A) (A) (A) (A) (A) (A) (A) (A) (A)
                 (A) (A) (A) (A) (A) (A) (A) (A) (A) (A) (A) (A)
                 (A) (A) (A) (A) (A) (A) (A) (A) (A) (A) (A) (A)
                 (A) (A) (A) (A) (A) (A) (A) (A) (A) (A) (A) (A)
                 (A) (A) (A) (A) (A) (A) (A) (A) (A) (A) (A) (A)
                 (A) (A) (A) (A) (A) (A) (A) (A) (A) (A) (A) (A)
                 (A) (A) (A) (A) (A) (A) (A) (A) (A) (A) (A) (A)
                 (A) (A) (A) (A) (A) (A) (A) (A) (A) (A) (A) (A)
                 (A) (A) (A) (A) (A) (A) (A) (A) (A) (A) (A) (A)
                 (A) (A) (A) (A) (A) (A) (A) (A) (A) (A) (A) (A)
                 (A) (A) (A) (A) (A) (A) (A) (A) (A) (A) (A) (A)
                 (A) (A) (A) (A) (A) (A) (A) (A) (A) (A) (A) (A)
                 (A) (A) (A) (A) (A) (A) (A) (A) (A) (A) (A) (A)
                 (A) (A) (A) (A) (A) (A) (A) (A) (A) (A) (A) (A)
                 (A) (A) (A) (A) (A) (A) (A) (A) (A) (A) (A) (A)
                 (A) (A) (A) (A) (A) (A) (A) (A) (A) (A) (A) (A)
                 (A) (A) (A) (A) (A) (A) (A) (A) (A) (A) (A) (A)
                 (A) (A) (A) (A) (A) (A) (A) (A) (A) (A) (A) (A)
                 (A) (A) (A) (A) (A) (A) (A) (A)
       Virtual   (A) (A) (A) (A) (A) (A) (A) (A) (A) (A) (A) (A)
                 (A) (A) (A) (A) (A) (A) (A) (A) (A) (A) (A) (A)
                 (A) (A) (A) (A) (A) (A) (A) (A) (A) (A) (A) (A)
                 (A) (A) (A) (A) (A) (A) (A) (A) (A) (A) (A) (A)
                 (A) (A) (A) (A) (A) (A) (A) (A) (A) (A) (A) (A)
                 (A) (A) (A) (A) (A) (A) (A) (A) (A) (A) (A) (A)
                 (A) (A) (A) (A) (A) (A) (A) (A) (A) (A) (A) (A)
                 (A) (A) (A) (A) (A) (A) (A) (A) (A) (A) (A) (A)
                 (A) (A) (A) (A) (A) (A) (A) (A) (A) (A) (A) (A)
                 (A) (A) (A) (A) (A) (A) (A) (A) (A) (A) (A) (A)
                 (A) (A) (A) (A) (A) (A) (A) (A) (A) (A) (A) (A)
                 (A) (A) (A) (A) (A) (A) (A) (A) (A) (A) (A) (A)
                 (A) (A) (A) (A) (A) (A) (A) (A) (A) (A) (A) (A)
                 (A) (A) (A) (A) (A) (A) (A) (A) (A) (A) (A) (A)
                 (A) (A) (A) (A) (A) (A) (A) (A) (A) (A) (A) (A)
                 (A) (A) (A) (A) (A) (A) (A) (A) (A) (A) (A) (A)
                 (A) (A) (A) (A) (A) (A) (A) (A) (A) (A) (A) (A)
                 (A) (A) (A) (A) (A) (A) (A) (A) (A) (A) (A) (A)
                 (A) (A) (A) (A) (A) (A) (A) (A) (A) (A) (A) (A)
                 (A) (A) (A) (A) (A) (A) (A) (A) (A) (A) (A) (A)
                 (A) (A) (A) (A) (A) (A) (A) (A) (A) (A) (A) (A)
                 (A) (A) (A) (A) (A) (A) (A) (A) (A) (A) (A) (A)
                 (A) (A) (A) (A) (A) (A) (A) (A) (A) (A) (A) (A)
                 (A) (A) (A) (A) (A) (A) (A) (A) (A) (A) (A) (A)
                 (A) (A) (A) (A) (A) (A) (A) (A) (A) (A) (A) (A)
                 (A) (A) (A) (A) (A) (A) (A) (A) (A) (A) (A) (A)
                 (A) (A) (A) (A) (A) (A) (A) (A) (A) (A) (A) (A)
                 (A) (A) (A) (A) (A) (A) (A) (A) (A) (A) (A) (A)
                 (A) (A) (A) (A) (A) (A) (A) (A) (A) (A) (A) (A)
                 (A) (A) (A) (A) (A) (A) (A) (A) (A) (A) (A) (A)
                 (A) (A) (A) (A) (A) (A) (A) (A) (A) (A) (A) (A)
                 (A) (A) (A) (A) (A) (A) (A) (A) (A) (A) (A) (A)
                 (A) (A) (A) (A) (A) (A) (A) (A) (A) (A) (A) (A)
                 (A) (A) (A) (A) (A) (A) (A) (A) (A) (A) (A) (A)
                 (A) (A) (A) (A) (A) (A) (A) (A) (A) (A) (A) (A)
                 (A) (A) (A) (A) (A) (A) (A) (A) (A) (A) (A) (A)
                 (A) (A) (A) (A) (A) (A) (A) (A) (A) (A) (A) (A)
                 (A) (A) (A) (A) (A) (A) (A) (A) (A) (A) (A) (A)
                 (A) (A) (A) (A) (A) (A) (A) (A) (A) (A) (A) (A)
                 (A) (A) (A) (A) (A) (A) (A) (A) (A) (A) (A) (A)
                 (A) (A) (A) (A) (A) (A) (A) (A) (A) (A) (A) (A)
                 (A) (A) (A) (A) (A) (A) (A) (A) (A) (A) (A) (A)
                 (A) (A) (A) (A) (A) (A) (A) (A) (A) (A) (A) (A)
                 (A) (A) (A) (A) (A) (A) (A) (A) (A) (A) (A) (A)
                 (A) (A) (A) (A) (A) (A) (A) (A) (A) (A) (A) (A)
                 (A) (A) (A) (A) (A) (A) (A) (A) (A) (A) (A) (A)
                 (A) (A) (A) (A) (A) (A) (A) (A) (A) (A) (A) (A)
                 (A) (A) (A) (A) (A) (A) (A) (A) (A) (A) (A) (A)
                 (A) (A) (A) (A) (A) (A) (A) (A) (A) (A) (A) (A)
                 (A) (A) (A) (A) (A) (A) (A) (A) (A) (A) (A) (A)
                 (A) (A) (A) (A) (A) (A) (A) (A) (A) (A) (A) (A)
                 (A) (A) (A) (A) (A) (A) (A) (A) (A) (A) (A) (A)
                 (A) (A) (A) (A) (A) (A) (A) (A) (A) (A) (A) (A)
                 (A) (A) (A) (A) (A) (A) (A) (A) (A) (A) (A) (A)
                 (A) (A) (A) (A) (A) (A) (A) (A) (A) (A) (A) (A)
                 (A) (A) (A) (A) (A) (A) (A) (A) (A) (A) (A) (A)
                 (A) (A) (A) (A) (A) (A) (A) (A) (A) (A) (A) (A)
                 (A) (A) (A) (A) (A) (A) (A) (A) (A) (A) (A) (A)
                 (A) (A) (A) (A) (A) (A) (A) (A) (A) (A) (A) (A)
                 (A) (A) (A) (A) (A) (A) (A) (A) (A) (A) (A) (A)
                 (A) (A) (A) (A) (A) (A) (A) (A) (A) (A) (A) (A)
                 (A) (A) (A) (A) (A) (A) (A) (A) (A) (A) (A) (A)
                 (A) (A) (A) (A) (A) (A) (A) (A) (A) (A) (A) (A)
                 (A) (A) (A) (A) (A) (A) (A) (A) (A) (A) (A) (A)
                 (A) (A) (A) (A) (A) (A) (A) (A) (A) (A) (A) (A)
                 (A) (A) (A) (A) (A) (A) (A) (A) (A) (A) (A) (A)
                 (A) (A) (A) (A) (A) (A) (A) (A) (A) (A) (A) (A)
                 (A) (A) (A) (A) (A) (A) (A) (A) (A) (A) (A) (A)
                 (A) (A) (A) (A) (A) (A) (A) (A) (A) (A) (A) (A)
                 (A) (A) (A) (A) (A) (A) (A) (A) (A) (A) (A) (A)
                 (A) (A) (A) (A) (A) (A) (A) (A) (A) (A) (A) (A)
                 (A) (A) (A) (A) (A) (A) (A) (A) (A) (A) (A) (A)
                 (A) (A) (A) (A) (A) (A) (A) (A) (A) (A) (A) (A)
                 (A) (A) (A) (A) (A) (A) (A) (A) (A) (A) (A) (A)
                 (A) (A) (A) (A) (A) (A) (A) (A) (A) (A) (A) (A)
                 (A) (A) (A) (A) (A) (A) (A) (A) (A) (A) (A) (A)
                 (A) (A) (A) (A) (A) (A) (A) (A) (A) (A) (A) (A)
                 (A) (A) (A) (A) (A) (A) (A) (A) (A) (A) (A) (A)
                 (A) (A) (A) (A) (A) (A) (A) (A) (A) (A) (A) (A)
                 (A) (A) (A) (A) (A) (A) (A) (A) (A) (A) (A) (A)
                 (A) (A) (A) (A) (A) (A) (A) (A) (A) (A) (A) (A)
                 (A) (A) (A) (A) (A) (A) (A) (A) (A) (A) (A) (A)
                 (A) (A) (A) (A) (A) (A) (A) (A) (A) (A) (A) (A)
                 (A) (A) (A) (A) (A) (A) (A) (A) (A) (A) (A) (A)
                 (A) (A) (A) (A) (A) (A) (A) (A) (A) (A) (A) (A)
                 (A) (A) (A) (A) (A) (A) (A) (A) (A) (A) (A) (A)
                 (A) (A) (A) (A) (A) (A) (A) (A) (A) (A) (A) (A)
                 (A) (A) (A) (A) (A) (A) (A) (A) (A) (A) (A) (A)
                 (A) (A) (A) (A) (A) (A) (A) (A) (A) (A) (A) (A)
                 (A) (A) (A) (A) (A) (A) (A) (A) (A) (A) (A) (A)
                 (A) (A) (A) (A) (A) (A) (A) (A) (A) (A) (A) (A)
                 (A) (A) (A) (A) (A) (A) (A) (A) (A) (A) (A) (A)
                 (A) (A) (A) (A) (A) (A) (A) (A) (A) (A) (A) (A)
                 (A) (A) (A) (A) (A) (A) (A) (A) (A) (A) (A) (A)
                 (A) (A) (A) (A) (A) (A) (A) (A) (A) (A) (A) (A)
                 (A) (A) (A) (A) (A) (A) (A) (A) (A) (A) (A) (A)
                 (A) (A) (A) (A) (A) (A) (A) (A) (A) (A) (A) (A)
                 (A) (A) (A) (A) (A) (A) (A) (A) (A) (A) (A) (A)
                 (A) (A) (A) (A) (A) (A) (A) (A) (A) (A) (A) (A)
                 (A) (A) (A) (A) (A) (A) (A) (A) (A) (A) (A) (A)
                 (A) (A) (A) (A) (A) (A) (A) (A) (A) (A) (A) (A)
                 (A) (A) (A) (A) (A) (A) (A) (A) (A) (A) (A) (A)
                 (A) (A) (A) (A) (A) (A) (A) (A) (A) (A) (A) (A)
                 (A) (A) (A) (A) (A) (A) (A) (A) (A) (A) (A) (A)
                 (A) (A) (A) (A) (A) (A) (A) (A) (A) (A) (A) (A)
                 (A) (A) (A) (A) (A) (A) (A) (A) (A) (A) (A) (A)
                 (A) (A) (A) (A) (A) (A) (A) (A) (A) (A) (A) (A)
                 (A) (A) (A) (A) (A) (A) (A) (A) (A) (A) (A) (A)
                 (A) (A) (A) (A) (A) (A) (A) (A) (A) (A) (A) (A)
                 (A) (A) (A) (A) (A) (A) (A) (A) (A) (A) (A) (A)
                 (A) (A) (A) (A) (A) (A) (A) (A) (A) (A) (A) (A)
                 (A) (A) (A) (A) (A) (A) (A) (A) (A) (A) (A) (A)
                 (A) (A) (A) (A) (A) (A) (A) (A) (A) (A) (A) (A)
                 (A) (A) (A) (A) (A) (A) (A) (A) (A) (A) (A) (A)
                 (A) (A) (A) (A) (A) (A) (A) (A) (A) (A) (A) (A)
                 (A) (A) (A) (A) (A) (A) (A) (A) (A) (A) (A) (A)
                 (A) (A) (A) (A) (A) (A) (A) (A) (A) (A) (A) (A)
                 (A) (A) (A) (A) (A) (A) (A) (A) (A) (A) (A) (A)
                 (A) (A) (A) (A) (A) (A) (A) (A) (A) (A) (A) (A)
                 (A) (A) (A) (A) (A) (A) (A) (A) (A) (A) (A) (A)
                 (A) (A) (A) (A) (A) (A) (A) (A) (A) (A) (A) (A)
                 (A) (A) (A) (A) (A) (A) (A) (A) (A) (A) (A) (A)
                 (A) (A) (A) (A) (A) (A) (A) (A) (A) (A) (A) (A)
                 (A) (A) (A) (A) (A) (A) (A) (A) (A) (A) (A) (A)
                 (A) (A) (A) (A) (A) (A) (A) (A) (A) (A) (A) (A)
                 (A) (A) (A) (A) (A) (A) (A) (A) (A) (A) (A) (A)
                 (A) (A) (A) (A) (A) (A) (A) (A) (A) (A) (A) (A)
                 (A) (A) (A) (A) (A) (A) (A) (A) (A) (A) (A) (A)
                 (A) (A) (A) (A) (A) (A) (A) (A) (A) (A) (A) (A)
                 (A) (A) (A) (A) (A) (A) (A) (A) (A) (A) (A) (A)
                 (A) (A) (A) (A) (A) (A) (A) (A) (A) (A) (A) (A)
                 (A) (A) (A) (A) (A) (A) (A) (A) (A) (A) (A) (A)
                 (A) (A) (A) (A) (A) (A) (A) (A) (A) (A) (A) (A)
                 (A) (A) (A) (A) (A) (A) (A) (A) (A) (A) (A) (A)
                 (A) (A) (A) (A) (A) (A) (A) (A) (A) (A) (A) (A)
                 (A) (A) (A) (A) (A) (A) (A) (A) (A) (A) (A) (A)
                 (A) (A) (A) (A) (A) (A) (A) (A) (A) (A) (A) (A)
                 (A) (A) (A) (A) (A) (A) (A) (A) (A) (A) (A) (A)
                 (A) (A) (A) (A) (A) (A) (A) (A) (A) (A) (A) (A)
                 (A) (A) (A) (A) (A) (A) (A) (A) (A) (A) (A) (A)
                 (A) (A) (A) (A) (A) (A) (A) (A) (A) (A) (A) (A)
                 (A) (A) (A) (A) (A) (A) (A) (A) (A) (A) (A) (A)
                 (A) (A) (A) (A) (A) (A) (A) (A) (A) (A) (A) (A)
                 (A) (A) (A) (A) (A) (A) (A) (A) (A) (A) (A) (A)
                 (A) (A) (A) (A) (A) (A) (A) (A) (A) (A) (A) (A)
                 (A) (A) (A) (A) (A) (A) (A) (A) (A) (A) (A) (A)
                 (A) (A) (A) (A) (A) (A) (A) (A) (A) (A) (A) (A)
                 (A) (A) (A) (A) (A) (A) (A) (A) (A) (A) (A) (A)
                 (A) (A) (A) (A) (A) (A) (A) (A) (A) (A) (A) (A)
                 (A) (A) (A) (A) (A) (A) (A) (A) (A) (A) (A) (A)
                 (A) (A) (A) (A) (A) (A) (A) (A) (A) (A) (A) (A)
                 (A) (A) (A) (A) (A) (A) (A) (A) (A) (A) (A) (A)
                 (A) (A) (A) (A) (A) (A) (A) (A) (A) (A) (A) (A)
                 (A) (A) (A) (A) (A) (A) (A) (A) (A) (A) (A) (A)
                 (A) (A) (A) (A) (A) (A) (A) (A) (A) (A) (A) (A)
                 (A) (A) (A) (A) (A) (A) (A) (A) (A) (A) (A) (A)
                 (A) (A) (A) (A) (A) (A) (A) (A) (A) (A) (A) (A)
                 (A) (A) (A) (A) (A) (A) (A) (A) (A) (A) (A) (A)
                 (A) (A) (A) (A) (A) (A) (A) (A) (A) (A) (A) (A)
                 (A) (A) (A) (A) (A) (A) (A) (A) (A) (A) (A) (A)
                 (A) (A) (A) (A) (A) (A) (A) (A) (A) (A) (A) (A)
                 (A) (A) (A) (A) (A) (A) (A) (A) (A) (A) (A) (A)
                 (A) (A) (A) (A) (A) (A) (A) (A) (A) (A) (A) (A)
                 (A) (A) (A) (A) (A) (A) (A) (A) (A) (A) (A) (A)
                 (A) (A) (A) (A) (A) (A) (A) (A) (A) (A) (A) (A)
                 (A) (A) (A) (A) (A) (A) (A) (A) (A) (A) (A) (A)
                 (A) (A) (A) (A) (A) (A) (A) (A) (A) (A) (A) (A)
                 (A) (A) (A) (A) (A) (A) (A) (A) (A) (A) (A) (A)
                 (A) (A) (A) (A) (A) (A) (A) (A) (A) (A) (A) (A)
                 (A) (A) (A) (A) (A) (A) (A) (A) (A) (A) (A) (A)
                 (A) (A) (A) (A) (A) (A) (A) (A) (A) (A) (A) (A)
                 (A) (A) (A) (A) (A) (A) (A) (A) (A) (A) (A) (A)
                 (A) (A) (A) (A) (A) (A) (A) (A) (A) (A) (A) (A)
                 (A) (A) (A) (A) (A) (A) (A) (A) (A) (A) (A) (A)
                 (A) (A) (A) (A) (A) (A) (A) (A) (A) (A) (A) (A)
                 (A) (A) (A) (A) (A) (A) (A) (A) (A) (A) (A) (A)
                 (A) (A) (A) (A) (A) (A) (A) (A) (A) (A) (A) (A)
                 (A) (A) (A) (A) (A) (A) (A) (A) (A) (A) (A) (A)
                 (A) (A) (A) (A) (A) (A) (A) (A) (A) (A) (A) (A)
                 (A) (A) (A) (A) (A) (A) (A) (A) (A) (A) (A) (A)
                 (A) (A) (A) (A) (A) (A) (A) (A) (A) (A) (A) (A)
                 (A) (A) (A) (A) (A) (A) (A) (A) (A) (A) (A) (A)
                 (A) (A) (A) (A) (A) (A) (A) (A) (A) (A) (A) (A)
                 (A) (A) (A) (A) (A) (A) (A) (A) (A) (A) (A) (A)
                 (A) (A) (A) (A) (A) (A) (A) (A) (A) (A) (A) (A)
                 (A) (A) (A) (A) (A) (A) (A) (A) (A) (A) (A) (A)
                 (A) (A) (A) (A) (A) (A) (A) (A) (A) (A) (A) (A)
                 (A) (A) (A) (A) (A) (A) (A) (A) (A) (A) (A) (A)
                 (A) (A) (A) (A) (A) (A) (A) (A) (A) (A) (A) (A)
                 (A) (A) (A) (A) (A) (A) (A) (A) (A) (A) (A) (A)
                 (A) (A) (A) (A) (A) (A) (A) (A) (A) (A) (A) (A)
                 (A) (A) (A) (A) (A) (A) (A) (A) (A) (A) (A) (A)
                 (A) (A) (A) (A) (A) (A) (A) (A) (A) (A) (A) (A)
                 (A) (A) (A) (A) (A) (A) (A) (A) (A) (A) (A) (A)
                 (A) (A) (A) (A) (A) (A) (A) (A) (A) (A) (A) (A)
                 (A) (A) (A) (A) (A) (A) (A) (A) (A) (A) (A) (A)
                 (A) (A) (A) (A) (A) (A) (A) (A) (A) (A) (A) (A)
                 (A) (A) (A) (A) (A) (A) (A) (A) (A) (A) (A) (A)
                 (A) (A) (A) (A) (A) (A) (A) (A) (A) (A) (A) (A)
                 (A) (A) (A) (A) (A) (A) (A) (A) (A) (A) (A) (A)
                 (A) (A) (A) (A) (A) (A) (A) (A) (A) (A) (A) (A)
                 (A) (A) (A) (A) (A) (A) (A) (A) (A) (A) (A) (A)
                 (A) (A) (A) (A) (A) (A) (A) (A) (A) (A) (A) (A)
                 (A) (A) (A) (A) (A) (A) (A) (A) (A) (A) (A) (A)
                 (A) (A) (A) (A) (A) (A) (A) (A) (A) (A) (A) (A)
                 (A) (A) (A) (A) (A) (A) (A) (A) (A) (A) (A) (A)
                 (A) (A) (A) (A) (A) (A) (A) (A) (A) (A) (A) (A)
                 (A) (A) (A) (A) (A) (A) (A) (A) (A) (A) (A) (A)
                 (A) (A) (A) (A) (A) (A) (A) (A) (A) (A) (A) (A)
                 (A) (A) (A) (A) (A) (A) (A) (A) (A) (A) (A) (A)
                 (A) (A) (A) (A) (A) (A) (A) (A) (A) (A) (A) (A)
                 (A) (A) (A) (A) (A) (A) (A) (A) (A) (A) (A) (A)
                 (A) (A) (A) (A) (A) (A) (A) (A) (A) (A) (A) (A)
                 (A) (A) (A) (A) (A) (A) (A) (A) (A) (A) (A) (A)
                 (A) (A) (A) (A) (A) (A) (A) (A) (A) (A) (A) (A)
                 (A) (A) (A) (A) (A) (A) (A) (A) (A) (A) (A) (A)
                 (A) (A) (A) (A) (A) (A) (A) (A) (A) (A) (A) (A)
                 (A) (A) (A) (A) (A) (A) (A) (A) (A) (A)
 The electronic state is 1-A.
 Alpha  occ. eigenvalues --  -25.21072 -25.21024 -19.68939 -19.68884 -19.68777
 Alpha  occ. eigenvalues --  -19.68717 -19.67660 -19.67525 -19.66883 -19.66689
 Alpha  occ. eigenvalues --  -19.66311 -15.02457 -15.02296 -14.85117 -14.82149
 Alpha  occ. eigenvalues --  -14.79573 -14.79529 -14.78651 -10.65510 -10.65353
 Alpha  occ. eigenvalues --  -10.62744 -10.62439 -10.62152 -10.62150 -10.62146
 Alpha  occ. eigenvalues --  -10.61851 -10.61461 -10.61034 -10.60904 -10.60898
 Alpha  occ. eigenvalues --  -10.60092 -10.59947 -10.59713 -10.59689 -10.59401
 Alpha  occ. eigenvalues --  -10.59309 -10.59234 -10.58600 -10.58545 -10.58425
 Alpha  occ. eigenvalues --  -10.58231 -10.58044 -10.57947 -10.57912 -10.57782
 Alpha  occ. eigenvalues --  -10.57712 -10.57444 -10.57143 -10.56929 -10.56792
 Alpha  occ. eigenvalues --  -10.56779 -10.56744 -10.56672 -10.56386 -10.56306
 Alpha  occ. eigenvalues --  -10.55867 -10.55644 -10.55450 -10.55442 -10.55323
 Alpha  occ. eigenvalues --  -10.55244 -10.55147 -10.55113 -10.54544 -10.54421
 Alpha  occ. eigenvalues --  -10.54398 -10.53978 -10.53765 -10.53531  -7.13986
 Alpha  occ. eigenvalues --   -7.11637  -7.11413  -5.11012  -5.10786  -5.09935
 Alpha  occ. eigenvalues --   -5.09912  -5.09710  -5.09691  -2.07862  -2.07637
 Alpha  occ. eigenvalues --   -2.07398  -2.07384  -2.07171  -2.07159  -2.06489
 Alpha  occ. eigenvalues --   -2.06488  -2.06263  -2.06263  -1.37662  -1.37479
 Alpha  occ. eigenvalues --   -1.32957  -1.29731  -1.22133  -1.21757  -1.21610
 Alpha  occ. eigenvalues --   -1.19681  -1.19630  -1.18987  -1.18725  -1.18535
 Alpha  occ. eigenvalues --   -1.11957  -1.10146  -1.03204  -1.00773  -1.00575
 Alpha  occ. eigenvalues --   -0.98589  -0.96687  -0.94909  -0.94331  -0.93611
 Alpha  occ. eigenvalues --   -0.92860  -0.92642  -0.92151  -0.91599  -0.91344
 Alpha  occ. eigenvalues --   -0.90725  -0.89662  -0.88508  -0.87446  -0.86601
 Alpha  occ. eigenvalues --   -0.86160  -0.85909  -0.84961  -0.84253  -0.83686
 Alpha  occ. eigenvalues --   -0.82671  -0.81874  -0.81540  -0.81279  -0.80913
 Alpha  occ. eigenvalues --   -0.79945  -0.79881  -0.78849  -0.78326  -0.77471
 Alpha  occ. eigenvalues --   -0.76415  -0.74148  -0.72996  -0.72825  -0.72574
 Alpha  occ. eigenvalues --   -0.72210  -0.71853  -0.70452  -0.69767  -0.69609
 Alpha  occ. eigenvalues --   -0.69211  -0.68173  -0.68082  -0.67440  -0.66603
 Alpha  occ. eigenvalues --   -0.66365  -0.66034  -0.65337  -0.65030  -0.64287
 Alpha  occ. eigenvalues --   -0.64160  -0.64128  -0.63771  -0.63516  -0.63048
 Alpha  occ. eigenvalues --   -0.62658  -0.62386  -0.62154  -0.61902  -0.61218
 Alpha  occ. eigenvalues --   -0.60786  -0.60511  -0.60457  -0.59694  -0.59531
 Alpha  occ. eigenvalues --   -0.59080  -0.58770  -0.58061  -0.57598  -0.57545
 Alpha  occ. eigenvalues --   -0.57151  -0.56830  -0.56595  -0.56355  -0.55829
 Alpha  occ. eigenvalues --   -0.55261  -0.54768  -0.54562  -0.54324  -0.53514
 Alpha  occ. eigenvalues --   -0.53316  -0.53149  -0.52965  -0.52751  -0.52688
 Alpha  occ. eigenvalues --   -0.52556  -0.52465  -0.52249  -0.52233  -0.52043
 Alpha  occ. eigenvalues --   -0.51673  -0.51021  -0.50878  -0.50455  -0.50257
 Alpha  occ. eigenvalues --   -0.50039  -0.49999  -0.49927  -0.49204  -0.49057
 Alpha  occ. eigenvalues --   -0.48905  -0.48831  -0.48426  -0.48075  -0.47866
 Alpha  occ. eigenvalues --   -0.47547  -0.47393  -0.47286  -0.47083  -0.46996
 Alpha  occ. eigenvalues --   -0.46884  -0.46680  -0.46257  -0.45835  -0.45729
 Alpha  occ. eigenvalues --   -0.45583  -0.45287  -0.44676  -0.44575  -0.44335
 Alpha  occ. eigenvalues --   -0.44152  -0.43874  -0.43496  -0.43322  -0.43197
 Alpha  occ. eigenvalues --   -0.42906  -0.42712  -0.42168  -0.42075  -0.41926
 Alpha  occ. eigenvalues --   -0.41604  -0.41464  -0.41455  -0.40906  -0.40775
 Alpha  occ. eigenvalues --   -0.40608  -0.40413  -0.40272  -0.40152  -0.39983
 Alpha  occ. eigenvalues --   -0.39389  -0.38860  -0.38528  -0.38080  -0.37826
 Alpha  occ. eigenvalues --   -0.37505  -0.36758  -0.36677  -0.35950  -0.35919
 Alpha  occ. eigenvalues --   -0.35527  -0.35059  -0.34714  -0.34640  -0.34466
 Alpha  occ. eigenvalues --   -0.32903  -0.32723  -0.32596  -0.32391  -0.32102
 Alpha  occ. eigenvalues --   -0.30895  -0.30346  -0.29692  -0.29359  -0.28695
 Alpha  occ. eigenvalues --   -0.27084  -0.25172
 Alpha virt. eigenvalues --   -0.10215  -0.08107  -0.07995  -0.03641  -0.02326
 Alpha virt. eigenvalues --   -0.00040   0.00017   0.00567   0.00678   0.01354
 Alpha virt. eigenvalues --    0.01575   0.01858   0.02006   0.03710   0.04049
 Alpha virt. eigenvalues --    0.04458   0.04629   0.05016   0.05369   0.05932
 Alpha virt. eigenvalues --    0.06070   0.06851   0.06894   0.06987   0.07528
 Alpha virt. eigenvalues --    0.07693   0.07810   0.07987   0.08388   0.08530
 Alpha virt. eigenvalues --    0.08825   0.08963   0.09126   0.09322   0.09643
 Alpha virt. eigenvalues --    0.09796   0.09822   0.10184   0.10398   0.10618
 Alpha virt. eigenvalues --    0.10720   0.10900   0.11066   0.11281   0.11345
 Alpha virt. eigenvalues --    0.11509   0.11805   0.12029   0.12504   0.12629
 Alpha virt. eigenvalues --    0.12919   0.13075   0.13291   0.13342   0.13389
 Alpha virt. eigenvalues --    0.13663   0.13741   0.13911   0.14065   0.14210
 Alpha virt. eigenvalues --    0.14274   0.14380   0.14644   0.14888   0.15185
 Alpha virt. eigenvalues --    0.15202   0.15341   0.15396   0.15598   0.15683
 Alpha virt. eigenvalues --    0.15798   0.16165   0.16458   0.16547   0.16830
 Alpha virt. eigenvalues --    0.16924   0.17145   0.17197   0.17327   0.17668
 Alpha virt. eigenvalues --    0.17822   0.17952   0.18102   0.18249   0.18466
 Alpha virt. eigenvalues --    0.18748   0.18844   0.18891   0.18931   0.19140
 Alpha virt. eigenvalues --    0.19192   0.19242   0.19298   0.19402   0.19623
 Alpha virt. eigenvalues --    0.19947   0.20072   0.20254   0.20606   0.20653
 Alpha virt. eigenvalues --    0.20763   0.21087   0.21101   0.21197   0.21377
 Alpha virt. eigenvalues --    0.21790   0.21884   0.21985   0.22259   0.22317
 Alpha virt. eigenvalues --    0.22554   0.22586   0.22887   0.23131   0.23264
 Alpha virt. eigenvalues --    0.23386   0.23457   0.23508   0.23638   0.23834
 Alpha virt. eigenvalues --    0.24016   0.24203   0.24345   0.24460   0.24625
 Alpha virt. eigenvalues --    0.24668   0.24963   0.25103   0.25252   0.25303
 Alpha virt. eigenvalues --    0.25479   0.25567   0.25704   0.25893   0.26068
 Alpha virt. eigenvalues --    0.26273   0.26347   0.26462   0.26630   0.26752
 Alpha virt. eigenvalues --    0.27092   0.27183   0.27332   0.27565   0.27701
 Alpha virt. eigenvalues --    0.27770   0.27993   0.28110   0.28122   0.28210
 Alpha virt. eigenvalues --    0.28362   0.28576   0.28671   0.28825   0.28911
 Alpha virt. eigenvalues --    0.29055   0.29380   0.29443   0.29766   0.29890
 Alpha virt. eigenvalues --    0.30055   0.30155   0.30432   0.30446   0.30704
 Alpha virt. eigenvalues --    0.30807   0.30986   0.31111   0.31347   0.31567
 Alpha virt. eigenvalues --    0.31754   0.31874   0.32231   0.32285   0.32436
 Alpha virt. eigenvalues --    0.32599   0.32746   0.32853   0.33042   0.33162
[...]
 Alpha virt. eigenvalues --    4.43911   4.44308   4.44660   4.44948   4.45316
 Alpha virt. eigenvalues --    4.45609   4.46019   4.46494   4.46822   4.47302
 Alpha virt. eigenvalues --    4.47345   4.48279   4.48491   4.48711   4.48822
 Alpha virt. eigenvalues --    4.49010   4.49689   4.49871   4.50015   4.50535
 Alpha virt. eigenvalues --    4.50839   4.50868   4.51178   4.51473   4.52070
 Alpha virt. eigenvalues --    4.52637   4.52938   4.52991   4.53216   4.53729
 Alpha virt. eigenvalues --    4.54043   4.54503   4.54743   4.54870   4.55335
 Alpha virt. eigenvalues --    4.55572   4.55814   4.56056   4.56223   4.56521
 Alpha virt. eigenvalues --    4.56994   4.57075   4.57406   4.57477   4.58059
 Alpha virt. eigenvalues --    4.58178   4.58263   4.58599   4.59233   4.59529
 Alpha virt. eigenvalues --    4.60289   4.60494   4.60722   4.61131   4.61388
 Alpha virt. eigenvalues --    4.61911   4.62208   4.62303   4.62635   4.62962
 Alpha virt. eigenvalues --    4.63699   4.64282   4.64849   4.64919   4.65257
 Alpha virt. eigenvalues --    4.65724   4.66225   4.66482   4.66733   4.67104
 Alpha virt. eigenvalues --    4.67258   4.67468   4.67803   4.68001   4.68268
 Alpha virt. eigenvalues --    4.68307   4.68477   4.68863   4.68922   4.69142
 Alpha virt. eigenvalues --    4.69532   4.69973   4.70129   4.70708   4.71077
 Alpha virt. eigenvalues --    4.71274   4.71393   4.71606   4.71750   4.71957
 Alpha virt. eigenvalues --    4.72180   4.72514   4.72781   4.73424   4.73497
 Alpha virt. eigenvalues --    4.74025   4.74131   4.74687   4.74997   4.75741
 Alpha virt. eigenvalues --    4.75767   4.76737   4.76833   4.77194   4.77461
 Alpha virt. eigenvalues --    4.77643   4.77871   4.77958   4.78313   4.78569
 Alpha virt. eigenvalues --    4.78900   4.79332   4.79605   4.79896   4.80324
 Alpha virt. eigenvalues --    4.80849   4.81123   4.81706   4.82176   4.82325
 Alpha virt. eigenvalues --    4.82491   4.82927   4.83316   4.83588   4.83717
 Alpha virt. eigenvalues --    4.84436   4.84739   4.85054   4.85341   4.85611
 Alpha virt. eigenvalues --    4.86176   4.86531   4.86693   4.87012   4.87171
 Alpha virt. eigenvalues --    4.87416   4.88056   4.88364   4.88859   4.89326
 Alpha virt. eigenvalues --    4.89682   4.89873   4.90796   4.91222   4.91366
 Alpha virt. eigenvalues --    4.91689   4.92047   4.92217   4.92847   4.93350
 Alpha virt. eigenvalues --    4.93554   4.93587   4.93836   4.94025   4.94363
 Alpha virt. eigenvalues --    4.94506   4.94540   4.95177   4.95772   4.96074
 Alpha virt. eigenvalues --    4.96359   4.96413   4.96830   4.96887   4.97580
 Alpha virt. eigenvalues --    4.97770   4.98502   4.98973   4.99137   4.99206
 Alpha virt. eigenvalues --    4.99389   5.00069   5.00316   5.00404   5.00691
 Alpha virt. eigenvalues --    5.01259   5.01708   5.02421   5.03007   5.03446
 Alpha virt. eigenvalues --    5.03526   5.04193   5.04306   5.04560   5.04707
 Alpha virt. eigenvalues --    5.05079   5.05244   5.05800   5.05892   5.06458
 Alpha virt. eigenvalues --    5.06647   5.06728   5.07665   5.08713   5.09122
 Alpha virt. eigenvalues --    5.09128   5.09274   5.09701   5.09944   5.10384
 Alpha virt. eigenvalues --    5.11041   5.11139   5.11473   5.11584   5.12059
 Alpha virt. eigenvalues --    5.12289   5.12386   5.13083   5.13698   5.14095
 Alpha virt. eigenvalues --    5.14334   5.14386   5.14426   5.14840   5.14910
 Alpha virt. eigenvalues --    5.15597   5.15957   5.16334   5.16697   5.16752
 Alpha virt. eigenvalues --    5.16915   5.17613   5.17732   5.18218   5.19128
 Alpha virt. eigenvalues --    5.19503   5.20091   5.21190   5.21310   5.21638
 Alpha virt. eigenvalues --    5.22498   5.23390   5.23657   5.23768   5.23952
 Alpha virt. eigenvalues --    5.24753   5.24973   5.25184   5.25758   5.26178
 Alpha virt. eigenvalues --    5.26372   5.26430   5.26476   5.26568   5.27787
 Alpha virt. eigenvalues --    5.28201   5.28592   5.28712   5.28913   5.29114
 Alpha virt. eigenvalues --    5.29349   5.29701   5.30018   5.30075   5.30666
 Alpha virt. eigenvalues --    5.30907   5.31103   5.31253   5.31726   5.31941
 Alpha virt. eigenvalues --    5.32689   5.33185   5.33890   5.33968   5.34410
 Alpha virt. eigenvalues --    5.34999   5.35615   5.35931   5.36300   5.36730
 Alpha virt. eigenvalues --    5.36967   5.38014   5.38210   5.38494   5.38861
 Alpha virt. eigenvalues --    5.39498   5.39627   5.39819   5.40081   5.40538
 Alpha virt. eigenvalues --    5.41008   5.41150   5.41498   5.42077   5.42813
 Alpha virt. eigenvalues --    5.43144   5.43366   5.43713   5.43921   5.44255
 Alpha virt. eigenvalues --    5.44296   5.44785   5.44989   5.45230   5.45661
 Alpha virt. eigenvalues --    5.46446   5.46686   5.47267   5.47954   5.48285
 Alpha virt. eigenvalues --    5.48642   5.49433   5.49641   5.50208   5.50674
 Alpha virt. eigenvalues --    5.51218   5.51231   5.51442   5.51664   5.51923
 Alpha virt. eigenvalues --    5.52294   5.52376   5.52679   5.53973   5.54269
 Alpha virt. eigenvalues --    5.54719   5.55270   5.55449   5.55942   5.56181
 Alpha virt. eigenvalues --    5.56460   5.56522   5.57230   5.57467   5.58127
 Alpha virt. eigenvalues --    5.58268   5.59008   5.59544   5.59626   5.59750
 Alpha virt. eigenvalues --    5.59927   5.60460   5.60709   5.61123   5.61588
 Alpha virt. eigenvalues --    5.61819   5.62312   5.63694   5.63959   5.64081
 Alpha virt. eigenvalues --    5.64828   5.65106   5.65744   5.66733   5.67399
 Alpha virt. eigenvalues --    5.67511   5.67751   5.68887   5.69304   5.70015
 Alpha virt. eigenvalues --    5.70956   5.71136   5.71269   5.71886   5.72793
 Alpha virt. eigenvalues --    5.72890   5.73572   5.73908   5.74741   5.75251
 Alpha virt. eigenvalues --    5.75672   5.75946   5.76313   5.80298   5.80539
 Alpha virt. eigenvalues --    5.81507   5.83038   5.84180   5.84493   5.86288
 Alpha virt. eigenvalues --    5.86311   5.87128   5.87718   5.88167   5.88752
 Alpha virt. eigenvalues --    5.91616   5.91944   5.92366   5.92921   5.94407
 Alpha virt. eigenvalues --    5.96319   5.96663   5.97376   5.97581   5.98187
 Alpha virt. eigenvalues --    5.99373   6.00915   6.01784   6.03500   6.04055
 Alpha virt. eigenvalues --    6.04672   6.05099   6.08150   6.09909   6.10057
 Alpha virt. eigenvalues --    6.13695   6.17680   6.18784   6.19735   6.19854
 Alpha virt. eigenvalues --    6.19988   6.22289   6.22834   6.22979   6.26308
 Alpha virt. eigenvalues --    6.27012   6.27098   6.27639   6.27844   6.29379
 Alpha virt. eigenvalues --    6.31254   6.31496   6.41611   6.41687   6.43033
 Alpha virt. eigenvalues --    6.43048   6.43561   6.43730   6.43974   6.46834
 Alpha virt. eigenvalues --    6.47959   6.51786   6.57498   6.57683   6.58122
 Alpha virt. eigenvalues --    6.58230   6.72101   6.74030   6.74143   6.74185
 Alpha virt. eigenvalues --    6.74593   6.74608   6.75073   6.75620   6.79526
 Alpha virt. eigenvalues --    6.80033   6.80115   6.80255   6.80449   6.80627
 Alpha virt. eigenvalues --    6.82167   6.82348   6.84401   6.84437   6.86566
 Alpha virt. eigenvalues --    6.88286   6.88763   6.90466   6.90993   6.92900
 Alpha virt. eigenvalues --    6.93662   6.93738   6.93948   6.94084   6.95471
 Alpha virt. eigenvalues --    6.96617   6.98175   6.98808   6.99556   7.04747
 Alpha virt. eigenvalues --    7.06543   7.06563   7.11157   7.13688   7.13795
 Alpha virt. eigenvalues --    7.16732   7.21853   7.23669   7.24131   7.24342
 Alpha virt. eigenvalues --    7.26630   7.27217   7.27345   7.29295   7.33523
 Alpha virt. eigenvalues --    7.34242   7.34990   7.35212   7.39831   7.41890
 Alpha virt. eigenvalues --    7.42092   7.43698   7.44043   7.48930   7.51108
 Alpha virt. eigenvalues --    7.51254   7.52318   7.59958   7.60084   8.45203
 Alpha virt. eigenvalues --    8.46390   8.55805   8.59010   8.82640   8.88151
 Alpha virt. eigenvalues --    8.91420   8.92451   8.93246   9.00397  15.86179
 Alpha virt. eigenvalues --   22.74232  22.75528  22.76952  22.84078  22.88919
 Alpha virt. eigenvalues --   22.94967  23.00244  23.05769  23.06194  23.09793
 Alpha virt. eigenvalues --   23.11507  23.11573  23.14045  23.14768  23.18156
 Alpha virt. eigenvalues --   23.18355  23.20370  23.21744  23.22931  23.23901
 Alpha virt. eigenvalues --   23.24726  23.25673  23.27613  23.27998  23.30959
 Alpha virt. eigenvalues --   23.32826  23.34109  23.34428  23.34548  23.36399
 Alpha virt. eigenvalues --   23.37005  23.37804  23.39487  23.41789  23.47765
 Alpha virt. eigenvalues --   23.49508  23.51835  23.54651  23.56612  23.59839
 Alpha virt. eigenvalues --   23.64944  23.65339  23.70381  23.71983  23.77215
 Alpha virt. eigenvalues --   23.82902  23.84175  24.00077  24.03896  24.04425
 Alpha virt. eigenvalues --   24.14687  32.08249  32.39443  32.56723  32.56807
 Alpha virt. eigenvalues --   33.08437  33.09629  33.27469  34.48345  34.51341
 Alpha virt. eigenvalues --   34.61612  34.62317  34.89914  34.91612  42.92273
 Alpha virt. eigenvalues --   42.92657  44.22979  44.23188  44.25089  44.25255
 Alpha virt. eigenvalues --   44.30071  44.30415  44.54097  44.66021  44.67936
 Alpha virt. eigenvalues --   57.37733  57.58166 117.59037 117.59292
          Condensed to atoms (all electrons):
 Mulliken charges:
               1
     1  C   -0.438699
     2  C    0.029631
     3  C    0.097792
     4  N   -0.069523
     5  C    0.090200
     6  C   -0.167281
     7  C   -0.052780
     8  C   -0.021381
     9  C   -0.098670
    10  C   -0.160413
    11  C    0.228199
    12  O   -0.346004
    13  C   -0.103477
    14  C   -0.011555
    15  N    0.512877
    16  O   -0.399425
    17  O   -0.360196
    18  C   -0.043838
    19  I   -0.042892
    20  B    0.375609
    21  F   -0.336361
    22  F   -0.351948
    23  N   -0.078875
    24  C    0.011366
    25  C   -0.220886
    26  C   -0.085277
    27  C   -0.041309
    28  C   -0.097841
    29  C   -0.150529
    30  C    0.230327
    31  O   -0.348514
    32  C   -0.046730
    33  C   -0.090360
    34  N    0.512916
    35  O   -0.403781
    36  O   -0.363211
    37  C   -0.043505
    38  I   -0.036541
    39  C    0.075288
    40  C   -0.431745
    41  C    0.098147
    42  C    0.160142
    43  C   -0.302273
    44  C   -0.164956
    45  C   -0.105202
    46  C    0.205500
    47  O   -0.283061
    48  C   -0.189539
    49  C   -0.251283
    50  C   -0.225213
    51  C   -0.252386
    52  C   -0.163832
    53  C   -0.214159
    54  N    0.086889
    55  C   -0.110771
    56  C   -0.034787
    57  C   -0.105109
    58  O   -0.293400
    59  C    0.187492
    60  C   -0.188021
    61  C   -0.189726
    62  C    0.183719
    63  O   -0.296275
    64  C   -0.112688
    65  C   -0.555703
    66  C    0.212086
    67  C   -0.172872
    68  C   -0.178283
    69  N   -0.211290
    70  N   -0.180320
    71  C   -0.148747
    72  C   -0.137688
    73  H    0.174973
    74  H    0.160973
    75  H    0.138026
    76  H    0.120051
    77  H    0.132797
    78  H    0.153916
    79  H    0.167790
    80  H    0.274192
    81  H    0.183516
    82  H    0.171435
    83  H    0.156273
    84  H    0.157849
    85  H    0.167596
    86  H    0.273621
    87  H    0.199130
    88  H    0.158538
    89  H    0.135872
    90  H    0.172773
    91  H    0.175988
    92  H    0.162063
    93  H    0.180992
    94  H    0.163904
    95  H    0.125905
    96  H    0.123814
    97  H    0.117974
    98  H    0.124517
    99  H    0.131812
   100  H    0.133659
   101  H    0.113665
   102  H    0.131441
   103  H    0.175714
   104  H    0.168531
   105  H    0.219834
   106  H    0.149668
   107  H    0.145085
   108  H    0.150847
   109  H    0.150880
   110  H    0.159938
   111  H    0.161019
   112  H    0.287531
   113  H    0.159400
   114  H    0.158601
   115  H    0.165317
   116  H    0.175532
 Sum of Mulliken charges =  -0.00000
 Mulliken charges with hydrogens summed into heavy atoms:
               1
     1  C    0.035273
     2  C    0.029631
     3  C    0.097792
     4  N   -0.069523
     5  C    0.090200
     6  C   -0.047229
     7  C    0.080017
     8  C   -0.021381
     9  C    0.055246
    10  C    0.007376
    11  C    0.228199
    12  O   -0.071812
    13  C   -0.103477
    14  C    0.171961
    15  N    0.512877
    16  O   -0.399425
    17  O   -0.360196
    18  C   -0.043838
    19  I   -0.042892
    20  B    0.375609
    21  F   -0.336361
    22  F   -0.351948
    23  N   -0.078875
    24  C    0.011366
    25  C   -0.049451
    26  C    0.070996
    27  C   -0.041309
    28  C    0.060008
    29  C    0.017067
    30  C    0.230327
    31  O   -0.074894
    32  C   -0.046730
    33  C    0.108770
    34  N    0.512916
    35  O   -0.403781
    36  O   -0.363211
    37  C   -0.043505
    38  I   -0.036541
    39  C    0.075288
    40  C    0.035439
    41  C    0.098147
    42  C    0.160142
    43  C   -0.302273
    44  C    0.011032
    45  C    0.056861
    46  C    0.205500
    47  O   -0.283061
    48  C    0.155358
    49  C   -0.001564
    50  C    0.017278
    51  C    0.013085
    52  C    0.081274
    53  C    0.130087
    54  N    0.086889
    55  C    0.109063
    56  C   -0.034787
    57  C    0.189644
    58  O   -0.293400
    59  C    0.187492
    60  C   -0.037174
    61  C   -0.038845
    62  C    0.183719
    63  O   -0.296275
    64  C    0.208268
    65  C   -0.555703
    66  C    0.499617
    67  C   -0.013471
    68  C   -0.019681
    69  N   -0.211290
    70  N   -0.180320
    71  C    0.016570
    72  C    0.037844
 Electronic spatial extent (au):  <R**2>=         155002.7810
 Charge=             -0.0000 electrons
 Dipole moment (field-independent basis, Debye):
    X=              3.7178    Y=            -13.7606    Z=              0.0651  Tot=             14.2541
 Quadrupole moment (field-independent basis, Debye-Ang):
   XX=           -486.4789   YY=           -406.6958   ZZ=           -480.4829
   XY=            -34.0302   XZ=            -36.5683   YZ=             23.6087
 Traceless Quadrupole moment (field-independent basis, Debye-Ang):
   XX=            -28.5930   YY=             51.1900   ZZ=            -22.5970
   XY=            -34.0302   XZ=            -36.5683   YZ=             23.6087
 Octapole moment (field-independent basis, Debye-Ang**2):
  XXX=            257.6981  YYY=              8.9357  ZZZ=             93.0995  XYY=           -132.9167
  XXY=          -1287.6373  XXZ=             -6.9253  XZZ=           -168.0290  YZZ=            -51.1816
  YYZ=             78.5335  XYZ=           -109.5482
 Hexadecapole moment (field-independent basis, Debye-Ang**3):
 XXXX=        -164854.9725 YYYY=         -25073.4742 ZZZZ=          -6371.9868 XXXY=          -2768.6614
 XXXZ=          -1916.0903 YYYX=            632.9943 YYYZ=           1410.7632 ZZZX=            277.4863
 ZZZY=            650.5937 XXYY=         -33717.9378 XXZZ=         -32762.1129 YYZZ=          -5625.0856
 XXYZ=            505.1737 YYXZ=           -399.6458 ZZXY=            382.8656
 N-N= 1.103572242238D+04 E-N=-3.092463128186D+04  KE= 3.464212095604D+03
 Leave Link  601 at Fri Oct 10 19:12:50 2025, MaxMem= 30870077440 cpu:             137.1 elap:               2.8
 (Enter /work/home/accqbws0vm/apprepo/gaussian/16-hy/scripts/../app/g16/l9999.exe)
 1\1\GINC-K02R1N22\SP\RM062X\def2TZVPP\C51H44B1F2I2N7O9\ACCQBWS0VM\10-O
 ct-2025\0\\#p M062X/DEF2TZVPP scrf=(solvent=water) em=GD3\\Energy calc
 ulation for M100034762\\0,1\C,0,2.891956,-4.411963,-0.110839\C,0,3.770
 29,-3.20038,-0.104502\C,0,3.433069,-1.84771,-0.443611\N,0,4.586006,-1.
 07141,-0.334755\C,0,5.624231,-1.853907,0.075033\C,0,6.917921,-1.254127
 ,0.320596\C,0,8.116259,-1.882638,0.321288\C,0,9.412404,-1.253704,0.570
 386\C,0,10.581864,-2.055207,0.507638\C,0,11.842494,-1.534938,0.726995\
 C,0,12.013562,-0.172794,1.023984\O,0,13.258603,0.28123,1.227458\C,0,10
 .846931,0.63525,1.088881\C,0,9.573253,0.099807,0.866695\N,0,10.944256,
 2.038457,1.391884\O,0,12.078463,2.533577,1.596053\O,0,9.922172,2.72393
 8,1.44539\C,0,5.126281,-3.181783,0.222237\I,0,6.169242,-4.844035,0.947
 995\B,0,4.716773,0.403936,-0.802122\F,0,5.682756,0.514843,-1.80575\F,0
 ,5.071947,1.228949,0.281523\N,0,3.328308,0.831499,-1.337204\C,0,3.0223
 31,2.091634,-1.728833\C,0,4.059974,3.083577,-2.036918\C,0,4.199117,4.3
 12162,-1.505394\C,0,3.466622,4.887205,-0.367138\C,0,3.175861,6.27413,-
 0.343657\C,0,2.497652,6.859014,0.708785\C,0,2.08934,6.092034,1.813483\
 O,0,1.435605,6.711824,2.807534\C,0,2.410623,4.71013,1.808429\C,0,3.095
 339,4.122406,0.733833\N,0,2.060571,3.87361,2.92183\O,0,1.445086,4.3824
 65,3.889941\O,0,2.364774,2.679387,2.908359\C,0,1.617365,2.167925,-1.89
 7252\I,0,0.583506,3.831102,-2.622471\C,0,1.052075,0.925918,-1.588882\C
 ,0,-0.409263,0.605748,-1.610852\C,0,2.154948,0.080359,-1.242674\C,0,2.
 209507,-1.271817,-0.843422\C,0,0.967276,-2.089486,-0.846098\C,0,0.3569
 3,-2.466082,0.356049\C,0,-0.817477,-3.220968,0.365898\C,0,-1.387772,-3
 .626603,-0.848772\O,0,-2.52568,-4.371693,-0.957881\C,0,-3.192792,-4.79
 9798,0.245578\C,0,-4.414138,-5.615105,-0.151658\C,0,-5.478329,-4.89191
 4,-0.996258\C,0,-6.124083,-3.651539,-0.340722\C,0,-5.44345,-2.322387,-
 0.69877\C,0,-6.037686,-1.09809,0.004889\N,0,-7.420526,-0.808815,-0.392
 445\C,0,-8.572594,-1.205819,0.192808\C,0,-9.56961,-0.721714,-0.631097\
 C,0,-11.047665,-0.817902,-0.480525\O,0,-11.499353,0.324516,0.273199\C,
 0,-12.847535,0.420086,0.540949\C,0,-13.811769,-0.501128,0.129472\C,0,-
 15.161163,-0.306111,0.461684\C,0,-15.544157,0.810157,1.20498\O,0,-16.8
 39663,1.099711,1.587802\C,0,-17.85767,0.166237,1.202793\C,0,-19.139034
 ,0.649953,1.708487\C,0,-20.208908,1.03274,2.118116\C,0,-14.572998,1.73
 6351,1.616538\C,0,-13.239538,1.543269,1.287908\N,0,-8.977476,-0.063269
 ,-1.66986\N,0,-7.675513,-0.121778,-1.526522\C,0,-0.776879,-3.262797,-2
 .060546\C,0,0.379801,-2.494824,-2.057138\H,0,2.302538,-4.489932,0.8091
 82\H,0,2.190678,-4.397453,-0.946604\H,0,3.503192,-5.31392,-0.188042\H,
 0,6.881694,-0.184231,0.497749\H,0,8.166526,-2.943864,0.102083\H,0,10.4
 79848,-3.112101,0.278856\H,0,12.727024,-2.160257,0.676133\H,0,13.18443
 1,1.246404,1.418083\H,0,8.72442,0.768495,0.930442\H,0,4.777326,2.77095
 8,-2.792654\H,0,4.958146,4.958343,-1.942684\H,0,3.488219,6.891766,-1.1
 80614\H,0,2.269077,7.919115,0.712974\H,0,1.246623,6.029144,3.494327\H,
 0,3.364297,3.076328,0.801154\H,0,-0.694941,-0.034163,-0.773931\H,0,-0.
 991455,1.528595,-1.555871\H,0,-0.697793,0.086815,-2.531474\H,0,0.79637
 2,-2.159276,1.300285\H,0,-1.270422,-3.486167,1.313178\H,0,-2.505173,-5
 .412715,0.84087\H,0,-3.47014,-3.924072,0.843415\H,0,-4.074563,-6.50743
 5,-0.691755\H,0,-4.870634,-5.969452,0.781259\H,0,-5.050423,-4.612563,-
 1.967023\H,0,-6.261927,-5.626353,-1.214788\H,0,-7.174577,-3.597503,-0.
 649534\H,0,-6.136057,-3.774379,0.751319\H,0,-4.381808,-2.345956,-0.431
 331\H,0,-5.487024,-2.163924,-1.783218\H,0,-6.042246,-1.231251,1.089243
 \H,0,-5.454852,-0.204383,-0.226749\H,0,-8.594652,-1.770387,1.112048\H,
 0,-11.525898,-0.824074,-1.466534\H,0,-11.318676,-1.739684,0.045995\H,0
 ,-13.542517,-1.376856,-0.448533\H,0,-15.886743,-1.038349,0.128253\H,0,
 -17.896769,0.071594,0.109404\H,0,-17.640938,-0.827674,1.616789\H,0,-21
 .154804,1.373599,2.481463\H,0,-14.880941,2.602141,2.19431\H,0,-12.4836
 62,2.255239,1.604153\H,0,-1.227209,-3.588647,-2.992751\H,0,0.840514,-2
 .214769,-2.999432\\Version=ES64L-G16RevA.03\State=1-A\HF=-3849.8930499
 \RMSD=3.548e-09\Dipole=-1.4627023,-5.4138322,-0.0256195\Quadrupole=-21
 .2582156,38.0585346,-16.8003191,25.3005837,-27.1875977,-17.5525089\PG=
 C01 [X(C51H44B1F2I2N7O9)]\\@


 BE CAREFUL NOT TO BECOME TOO GOOD OF A SONGBIRD OR 
 THEY'LL THROW YOU INTO A CAGE.

                                    -- SNOOPY TO WOODSTOCK
 Job cpu time:       1 days 15 hours 55 minutes 15.2 seconds.
 Elapsed time:       0 days  0 hours 38 minutes 10.1 seconds.
 File lengths (MBytes):  RWF=   5625 Int=      0 D2E=      0 Chk=    482 Scr=      1
 Normal termination of Gaussian 16 at Fri Oct 10 19:12:50 2025.
