 Entering Gaussian System, Link 0=g16
 Input=M100033539_reduced_sp.gjf
 Output=M100033539_reduced_sp.log
 Initial command:
 /work/home/accqbws0vm/apprepo/gaussian/16-hy/scripts/../app/g16/l1.exe "/work/home/accqbws0vm/1012_third_energy/tmp_M100033539_reduced_sp_25977247/Gau-52855.inp" -scrdir="/work/home/accqbws0vm/1012_third_energy/tmp_M100033539_reduced_sp_25977247/"
 Entering Link 1 = /work/home/accqbws0vm/apprepo/gaussian/16-hy/scripts/../app/g16/l1.exe PID=     52856.
  
 Copyright (c) 1988,1990,1992,1993,1995,1998,2003,2009,2016,
            Gaussian, Inc.  All Rights Reserved.
  
 This is part of the Gaussian(R) 16 program.  It is based on
 the Gaussian(R) 09 system (copyright 2009, Gaussian, Inc.),
 the Gaussian(R) 03 system (copyright 2003, Gaussian, Inc.),
 the Gaussian(R) 98 system (copyright 1998, Gaussian, Inc.),
 the Gaussian(R) 94 system (copyright 1995, Gaussian, Inc.),
 the Gaussian 92(TM) system (copyright 1992, Gaussian, Inc.),
 the Gaussian 90(TM) system (copyright 1990, Gaussian, Inc.),
 the Gaussian 88(TM) system (copyright 1988, Gaussian, Inc.),
 the Gaussian 86(TM) system (copyright 1986, Carnegie Mellon
 University), and the Gaussian 82(TM) system (copyright 1983,
 Carnegie Mellon University). Gaussian is a federally registered
 trademark of Gaussian, Inc.
  
 This software contains proprietary and confidential information,
 including trade secrets, belonging to Gaussian, Inc.
  
 This software is provided under written license and may be
 used, copied, transmitted, or stored only in accord with that
 written license.
  
 The following legend is applicable only to US Government
 contracts under FAR:
  
                    RESTRICTED RIGHTS LEGEND
  
 Use, reproduction and disclosure by the US Government is
 subject to restrictions as set forth in subparagraphs (a)
 and (c) of the Commercial Computer Software - Restricted
 Rights clause in FAR 52.227-19.
  
 Gaussian, Inc.
 340 Quinnipiac St., Bldg. 40, Wallingford CT 06492
  
  
 ---------------------------------------------------------------
 Warning -- This program may not be used in any manner that
 competes with the business of Gaussian, Inc. or will provide
 assistance to any competitor of Gaussian, Inc.  The licensee
 of this program is prohibited from giving any competitor of
 Gaussian, Inc. access to this program.  By using this program,
 the user acknowledges that Gaussian, Inc. is engaged in the
 business of creating and licensing software in the field of
 computational chemistry and represents and warrants to the
 licensee that it is not a competitor of Gaussian, Inc. and that
 it will not use this program in any manner prohibited above.
 ---------------------------------------------------------------
  

 Cite this work as:
 Gaussian 16, Revision A.03,
 M. J. Frisch, G. W. Trucks, H. B. Schlegel, G. E. Scuseria, 
 M. A. Robb, J. R. Cheeseman, G. Scalmani, V. Barone, 
 G. A. Petersson, H. Nakatsuji, X. Li, M. Caricato, A. V. Marenich, 
 J. Bloino, B. G. Janesko, R. Gomperts, B. Mennucci, H. P. Hratchian, 
 J. V. Ortiz, A. F. Izmaylov, J. L. Sonnenberg, D. Williams-Young, 
 F. Ding, F. Lipparini, F. Egidi, J. Goings, B. Peng, A. Petrone, 
 T. Henderson, D. Ranasinghe, V. G. Zakrzewski, J. Gao, N. Rega, 
 G. Zheng, W. Liang, M. Hada, M. Ehara, K. Toyota, R. Fukuda, 
 J. Hasegawa, M. Ishida, T. Nakajima, Y. Honda, O. Kitao, H. Nakai, 
 T. Vreven, K. Throssell, J. A. Montgomery, Jr., J. E. Peralta, 
 F. Ogliaro, M. J. Bearpark, J. J. Heyd, E. N. Brothers, K. N. Kudin, 
 V. N. Staroverov, T. A. Keith, R. Kobayashi, J. Normand, 
 K. Raghavachari, A. P. Rendell, J. C. Burant, S. S. Iyengar, 
 J. Tomasi, M. Cossi, J. M. Millam, M. Klene, C. Adamo, R. Cammi, 
 J. W. Ochterski, R. L. Martin, K. Morokuma, O. Farkas, 
 J. B. Foresman, and D. J. Fox, Gaussian, Inc., Wallingford CT, 2016.
 
 ******************************************
 Gaussian 16:  ES64L-G16RevA.03 25-Dec-2016
                12-Oct-2025 
 ******************************************
 %nprocshared=64
 Will use up to   64 processors via shared memory.
 %mem=230GB
 %chk=M100033539_reduced_sp.chk
 ----------------------------------------------
 #p M062X/DEF2TZVPP scrf=(solvent=water) em=GD3
 ----------------------------------------------
 1/38=1,172=1/1;
 2/12=2,17=6,18=5,40=1/2;
 3/5=44,7=202,11=2,25=1,30=1,70=2201,72=1,74=-55,124=31/1,2,3;
 4//1;
 5/5=2,38=5,53=1/2;
 6/7=2,8=2,9=2,10=2,28=1/1;
 99/5=1,9=1/99;
 Leave Link    1 at Sun Oct 12 04:35:51 2025, MaxMem= 30870077440 cpu:               6.6 elap:               0.1
 (Enter /work/home/accqbws0vm/apprepo/gaussian/16-hy/scripts/../app/g16/l101.exe)
 -----------------------------------------
 Energy calculation for M100033539_reduced
 -----------------------------------------
 Symbolic Z-matrix:
 Charge = -1 Multiplicity = 2
 C                     10.429   -0.26686   0.29646 
 C                     9.87451   0.79756  -0.65722 
 N                     8.69765   1.527    -0.17074 
 C                     8.93754   2.7681    0.575 
 C                     9.05986   2.61      2.09479 
 C                     7.44851   0.93744  -0.18197 
 C                     6.31406   1.57716   0.39249 
 C                     5.0523    1.00971   0.33011 
 C                     4.81971  -0.23451  -0.29677 
 C                     3.51814  -0.87479  -0.39436 
 C                     2.33076  -0.35948   0.02151 
 C                     1.03307  -0.98734  -0.05246 
 N                    -0.10821  -0.21876  -0.00209 
 C                    -1.232    -1.0448   -0.04384 
 C                    -2.5427   -0.49161  -0.01913 
 C                    -3.71811  -1.36073   0.07902 
 C                    -3.86186  -2.28217   1.14584 
 C                    -4.97717  -3.0896    1.25581 
 C                    -5.98593  -3.02231   0.27026 
 N                    -7.11689  -3.85344   0.36514 
 O                    -8.02498  -3.77837  -0.52122 
 O                    -7.21289  -4.67002   1.33409 
 C                    -5.86022  -2.12213  -0.81024 
 C                    -4.75357  -1.29909  -0.88641 
 C                    -2.70943   0.92394  -0.08779 
 C                    -3.84975   1.75404   0.1096 
 C                    -5.23833   1.38338   0.53141 
 C                    -3.38517   3.0705   -0.08738 
 I                    -4.54439   4.81161   0.013 
 C                    -2.00919   3.04939  -0.34768 
 C                    -1.06659   4.18369  -0.57615 
 N                    -1.60691   1.74799  -0.33162 
 B                    -0.12929   1.30066  -0.30269 
 F                     0.55566   2.01452   0.70256 
 F                     0.49096   1.56151  -1.53805 
 C                    -0.78523  -2.39667  -0.16973 
 C                    -1.5896   -3.64252  -0.38094 
 C                     0.61536  -2.33853  -0.14113 
 I                     1.83408  -4.04316  -0.08127 
 C                     5.94868  -0.87471  -0.84951 
 C                     7.21967  -0.32236  -0.79615 
 H                     9.67351  -1.01874   0.54364 
 H                     11.27404  -0.7801   -0.17568 
 H                     10.78333   0.1806    1.22953 
 H                     10.64867   1.54248  -0.85992 
 H                     9.63408   0.34058  -1.62269 
 H                     9.85998   3.20198   0.18 
 H                     8.14277   3.48315   0.33929 
 H                     8.16343   2.15412   2.52591 
 H                     9.92039   1.99016   2.36248 
 H                     9.19389   3.59399   2.55766 
 H                     6.42119   2.52926   0.89651 
 H                     4.22792   1.54701   0.79013 
 H                     3.53111  -1.84984  -0.87236 
 H                     2.31146   0.64365   0.4346 
 H                    -3.09218  -2.33049   1.90932 
 H                    -5.09285  -3.76683   2.09234 
 H                    -6.62816  -2.09289  -1.57264 
 H                    -4.65714  -0.61242  -1.72117 
 H                    -5.69994   2.22273   1.05935 
 H                    -5.88862   1.136    -0.31583 
 H                    -5.23866   0.52015   1.20016 
 H                    -0.52116   4.43811   0.34004 
 H                    -0.32614   3.92484  -1.33678 
 H                    -1.61181   5.07147  -0.90246 
 H                    -1.91016  -4.10686   0.55853 
 H                    -2.48912  -3.44209  -0.96598 
 H                    -0.98999  -4.38068  -0.92033 
 H                     5.82     -1.83955  -1.33465 
 H                     8.0395   -0.8754   -1.23626 
 
 ITRead=  0  0  0  0  0  0  0  0  0  0  0  0  0  0  0  0  0  0  0  0
 ITRead=  0  0  0  0  0  0  0  0  0  0  0  0  0  0  0  0  0  0  0  0
 ITRead=  0  0  0  0  0  0  0  0  0  0  0  0  0  0  0  0  0  0  0  0
 ITRead=  0  0  0  0  0  0  0  0  0  0
 MicOpt= -1 -1 -1 -1 -1 -1 -1 -1 -1 -1 -1 -1 -1 -1 -1 -1 -1 -1 -1 -1
 MicOpt= -1 -1 -1 -1 -1 -1 -1 -1 -1 -1 -1 -1 -1 -1 -1 -1 -1 -1 -1 -1
 MicOpt= -1 -1 -1 -1 -1 -1 -1 -1 -1 -1 -1 -1 -1 -1 -1 -1 -1 -1 -1 -1
 MicOpt= -1 -1 -1 -1 -1 -1 -1 -1 -1 -1
 NAtoms=     70 NQM=       70 NQMF=       0 NMMI=      0 NMMIF=      0
                NMic=       0 NMicF=      0.
                    Isotopes and Nuclear Properties:
 (Nuclear quadrupole moments (NQMom) in fm**2, nuclear magnetic moments (NMagM)
  in nuclear magnetons)

  Atom         1           2           3           4           5           6           7           8           9          10
 IAtWgt=          12          12          14          12          12          12          12          12          12          12
 AtmWgt=  12.0000000  12.0000000  14.0030740  12.0000000  12.0000000  12.0000000  12.0000000  12.0000000  12.0000000  12.0000000
 NucSpn=           0           0           2           0           0           0           0           0           0           0
 AtZEff=  -0.0000000  -0.0000000  -0.0000000  -0.0000000  -0.0000000  -0.0000000  -0.0000000  -0.0000000  -0.0000000  -0.0000000
 NQMom=    0.0000000   0.0000000   2.0440000   0.0000000   0.0000000   0.0000000   0.0000000   0.0000000   0.0000000   0.0000000
 NMagM=    0.0000000   0.0000000   0.4037610   0.0000000   0.0000000   0.0000000   0.0000000   0.0000000   0.0000000   0.0000000
 AtZNuc=   6.0000000   6.0000000   7.0000000   6.0000000   6.0000000   6.0000000   6.0000000   6.0000000   6.0000000   6.0000000

  Atom        11          12          13          14          15          16          17          18          19          20
 IAtWgt=          12          12          14          12          12          12          12          12          12          14
 AtmWgt=  12.0000000  12.0000000  14.0030740  12.0000000  12.0000000  12.0000000  12.0000000  12.0000000  12.0000000  14.0030740
 NucSpn=           0           0           2           0           0           0           0           0           0           2
 AtZEff=  -0.0000000  -0.0000000  -0.0000000  -0.0000000  -0.0000000  -0.0000000  -0.0000000  -0.0000000  -0.0000000  -0.0000000
 NQMom=    0.0000000   0.0000000   2.0440000   0.0000000   0.0000000   0.0000000   0.0000000   0.0000000   0.0000000   2.0440000
 NMagM=    0.0000000   0.0000000   0.4037610   0.0000000   0.0000000   0.0000000   0.0000000   0.0000000   0.0000000   0.4037610
 AtZNuc=   6.0000000   6.0000000   7.0000000   6.0000000   6.0000000   6.0000000   6.0000000   6.0000000   6.0000000   7.0000000

  Atom        21          22          23          24          25          26          27          28          29          30
 IAtWgt=          16          16          12          12          12          12          12          12         127          12
 AtmWgt=  15.9949146  15.9949146  12.0000000  12.0000000  12.0000000  12.0000000  12.0000000  12.0000000 126.9004000  12.0000000
 NucSpn=           0           0           0           0           0           0           0           0           5           0
 AtZEff=  -0.0000000  -0.0000000  -0.0000000  -0.0000000  -0.0000000  -0.0000000  -0.0000000  -0.0000000  -0.0000000  -0.0000000
 NQMom=    0.0000000   0.0000000   0.0000000   0.0000000   0.0000000   0.0000000   0.0000000   0.0000000 -71.0000000   0.0000000
 NMagM=    0.0000000   0.0000000   0.0000000   0.0000000   0.0000000   0.0000000   0.0000000   0.0000000   2.8132800   0.0000000
 AtZNuc=   8.0000000   8.0000000   6.0000000   6.0000000   6.0000000   6.0000000   6.0000000   6.0000000  53.0000000   6.0000000

  Atom        31          32          33          34          35          36          37          38          39          40
 IAtWgt=          12          14          11          19          19          12          12          12         127          12
 AtmWgt=  12.0000000  14.0030740  11.0093053  18.9984032  18.9984032  12.0000000  12.0000000  12.0000000 126.9004000  12.0000000
 NucSpn=           0           2           3           1           1           0           0           0           5           0
 AtZEff=  -0.0000000  -0.0000000  -0.0000000  -0.0000000  -0.0000000  -0.0000000  -0.0000000  -0.0000000  -0.0000000  -0.0000000
 NQMom=    0.0000000   2.0440000   4.0590000   0.0000000   0.0000000   0.0000000   0.0000000   0.0000000 -71.0000000   0.0000000
 NMagM=    0.0000000   0.4037610   2.6886370   2.6288670   2.6288670   0.0000000   0.0000000   0.0000000   2.8132800   0.0000000
 AtZNuc=   6.0000000   7.0000000   5.0000000   9.0000000   9.0000000   6.0000000   6.0000000   6.0000000  53.0000000   6.0000000

  Atom        41          42          43          44          45          46          47          48          49          50
 IAtWgt=          12           1           1           1           1           1           1           1           1           1
 AtmWgt=  12.0000000   1.0078250   1.0078250   1.0078250   1.0078250   1.0078250   1.0078250   1.0078250   1.0078250   1.0078250
 NucSpn=           0           1           1           1           1           1           1           1           1           1
 AtZEff=  -0.0000000  -0.0000000  -0.0000000  -0.0000000  -0.0000000  -0.0000000  -0.0000000  -0.0000000  -0.0000000  -0.0000000
 NQMom=    0.0000000   0.0000000   0.0000000   0.0000000   0.0000000   0.0000000   0.0000000   0.0000000   0.0000000   0.0000000
 NMagM=    0.0000000   2.7928460   2.7928460   2.7928460   2.7928460   2.7928460   2.7928460   2.7928460   2.7928460   2.7928460
 AtZNuc=   6.0000000   1.0000000   1.0000000   1.0000000   1.0000000   1.0000000   1.0000000   1.0000000   1.0000000   1.0000000

  Atom        51          52          53          54          55          56          57          58          59          60
 IAtWgt=           1           1           1           1           1           1           1           1           1           1
 AtmWgt=   1.0078250   1.0078250   1.0078250   1.0078250   1.0078250   1.0078250   1.0078250   1.0078250   1.0078250   1.0078250
 NucSpn=           1           1           1           1           1           1           1           1           1           1
 AtZEff=  -0.0000000  -0.0000000  -0.0000000  -0.0000000  -0.0000000  -0.0000000  -0.0000000  -0.0000000  -0.0000000  -0.0000000
 NQMom=    0.0000000   0.0000000   0.0000000   0.0000000   0.0000000   0.0000000   0.0000000   0.0000000   0.0000000   0.0000000
 NMagM=    2.7928460   2.7928460   2.7928460   2.7928460   2.7928460   2.7928460   2.7928460   2.7928460   2.7928460   2.7928460
 AtZNuc=   1.0000000   1.0000000   1.0000000   1.0000000   1.0000000   1.0000000   1.0000000   1.0000000   1.0000000   1.0000000

  Atom        61          62          63          64          65          66          67          68          69          70
 IAtWgt=           1           1           1           1           1           1           1           1           1           1
 AtmWgt=   1.0078250   1.0078250   1.0078250   1.0078250   1.0078250   1.0078250   1.0078250   1.0078250   1.0078250   1.0078250
 NucSpn=           1           1           1           1           1           1           1           1           1           1
 AtZEff=  -0.0000000  -0.0000000  -0.0000000  -0.0000000  -0.0000000  -0.0000000  -0.0000000  -0.0000000  -0.0000000  -0.0000000
 NQMom=    0.0000000   0.0000000   0.0000000   0.0000000   0.0000000   0.0000000   0.0000000   0.0000000   0.0000000   0.0000000
 NMagM=    2.7928460   2.7928460   2.7928460   2.7928460   2.7928460   2.7928460   2.7928460   2.7928460   2.7928460   2.7928460
 AtZNuc=   1.0000000   1.0000000   1.0000000   1.0000000   1.0000000   1.0000000   1.0000000   1.0000000   1.0000000   1.0000000
 Leave Link  101 at Sun Oct 12 04:35:51 2025, MaxMem= 30870077440 cpu:               4.5 elap:               0.1
 (Enter /work/home/accqbws0vm/apprepo/gaussian/16-hy/scripts/../app/g16/l202.exe)
 Stoichiometry    C30H29BF2I2N4O2(1-,2)
 Framework group  C1[X(C30H29BF2I2N4O2)]
 Deg. of freedom   204
 Full point group                 C1      NOp   1
 Largest Abelian subgroup         C1      NOp   1
 Largest concise Abelian subgroup C1      NOp   1
                         Standard orientation:                         
 ---------------------------------------------------------------------
 Center     Atomic      Atomic             Coordinates (Angstroms)
 Number     Number       Type             X           Y           Z
 ---------------------------------------------------------------------
      1          6           0       10.429004   -0.266858    0.296458
      2          6           0        9.874510    0.797559   -0.657223
      3          7           0        8.697648    1.526996   -0.170744
      4          6           0        8.937542    2.768098    0.575003
      5          6           0        9.059855    2.610004    2.094788
      6          6           0        7.448506    0.937441   -0.181966
      7          6           0        6.314062    1.577158    0.392492
      8          6           0        5.052297    1.009707    0.330111
      9          6           0        4.819708   -0.234513   -0.296774
     10          6           0        3.518140   -0.874788   -0.394360
     11          6           0        2.330759   -0.359483    0.021510
     12          6           0        1.033073   -0.987338   -0.052461
     13          7           0       -0.108205   -0.218756   -0.002089
     14          6           0       -1.231995   -1.044800   -0.043840
     15          6           0       -2.542704   -0.491608   -0.019134
     16          6           0       -3.718113   -1.360726    0.079021
     17          6           0       -3.861861   -2.282173    1.145842
     18          6           0       -4.977172   -3.089598    1.255805
     19          6           0       -5.985932   -3.022314    0.270255
     20          7           0       -7.116887   -3.853439    0.365136
     21          8           0       -8.024979   -3.778372   -0.521223
     22          8           0       -7.212888   -4.670021    1.334094
     23          6           0       -5.860216   -2.122127   -0.810238
     24          6           0       -4.753566   -1.299093   -0.886407
     25          6           0       -2.709429    0.923943   -0.087790
     26          6           0       -3.849747    1.754035    0.109602
     27          6           0       -5.238332    1.383375    0.531406
     28          6           0       -3.385166    3.070497   -0.087382
     29         53           0       -4.544393    4.811608    0.013003
     30          6           0       -2.009192    3.049390   -0.347684
     31          6           0       -1.066592    4.183689   -0.576153
     32          7           0       -1.606912    1.747994   -0.331620
     33          5           0       -0.129290    1.300662   -0.302688
     34          9           0        0.555658    2.014523    0.702557
     35          9           0        0.490958    1.561506   -1.538049
     36          6           0       -0.785231   -2.396672   -0.169729
     37          6           0       -1.589600   -3.642515   -0.380942
     38          6           0        0.615361   -2.338532   -0.141132
     39         53           0        1.834075   -4.043164   -0.081270
     40          6           0        5.948680   -0.874712   -0.849507
     41          6           0        7.219666   -0.322363   -0.796153
     42          1           0        9.673511   -1.018743    0.543642
     43          1           0       11.274038   -0.780102   -0.175681
     44          1           0       10.783331    0.180603    1.229533
     45          1           0       10.648672    1.542481   -0.859923
     46          1           0        9.634075    0.340581   -1.622690
     47          1           0        9.859980    3.201977    0.179998
     48          1           0        8.142772    3.483148    0.339293
     49          1           0        8.163429    2.154115    2.525909
     50          1           0        9.920388    1.990162    2.362478
     51          1           0        9.193889    3.593987    2.557663
     52          1           0        6.421191    2.529264    0.896506
     53          1           0        4.227922    1.547005    0.790133
     54          1           0        3.531107   -1.849841   -0.872364
     55          1           0        2.311455    0.643650    0.434601
     56          1           0       -3.092184   -2.330486    1.909324
     57          1           0       -5.092851   -3.766830    2.092340
     58          1           0       -6.628162   -2.092891   -1.572640
     59          1           0       -4.657138   -0.612418   -1.721166
     60          1           0       -5.699939    2.222726    1.059346
     61          1           0       -5.888621    1.135995   -0.315831
     62          1           0       -5.238663    0.520152    1.200162
     63          1           0       -0.521158    4.438113    0.340038
     64          1           0       -0.326141    3.924844   -1.336784
     65          1           0       -1.611807    5.071473   -0.902457
     66          1           0       -1.910160   -4.106858    0.558527
     67          1           0       -2.489117   -3.442088   -0.965983
     68          1           0       -0.989991   -4.380682   -0.920334
     69          1           0        5.820000   -1.839553   -1.334651
     70          1           0        8.039499   -0.875395   -1.236255
 ---------------------------------------------------------------------
 Rotational constants (GHZ):           0.0637709           0.0272950           0.0195479
 Leave Link  202 at Sun Oct 12 04:35:52 2025, MaxMem= 30870077440 cpu:               5.2 elap:               0.1
 (Enter /work/home/accqbws0vm/apprepo/gaussian/16-hy/scripts/../app/g16/l301.exe)
 Standard basis: def2TZVPP (5D, 7F)
 Ernie: Thresh=  0.10000D-02 Tol=  0.10000D-05 Strict=F.
 There are  1957 symmetry adapted cartesian basis functions of A   symmetry.
 There are  1715 symmetry adapted basis functions of A   symmetry.
  1715 basis functions,  2700 primitive gaussians,  1957 cartesian basis functions
   164 alpha electrons      163 beta electrons
       nuclear repulsion energy      5193.0962074136 Hartrees.
 IExCor= 4336 DFT=T Ex+Corr=M062X ExCW=0 ScaHFX=  0.540000
 ScaDFX=  1.000000  1.000000  1.000000  1.000000 ScalE2=  1.000000  1.000000
 IRadAn=      5 IRanWt=     -1 IRanGd=            0 ICorTp=0 IEmpDi=131
 NAtoms=   70 NActive=   70 NUniq=   70 SFac= 1.00D+00 NAtFMM=   60 NAOKFM=T Big=T
 Integral buffers will be    131072 words long.
 Raffenetti 2 integral format.
 Two-electron integral symmetry is turned on.
 R6Disp:  Grimme-D3 Dispersion energy=       -0.0059807703 Hartrees.
 Nuclear repulsion after empirical dispersion term =     5193.0902266433 Hartrees.
 ------------------------------------------------------------------------------
 Polarizable Continuum Model (PCM)
 =================================
 Model                : PCM.
 Atomic radii         : UFF (Universal Force Field).
 Polarization charges : Total charges.
 Charge compensation  : None.
 Solution method      : On-the-fly selection.
 Cavity type          : Scaled VdW (van der Waals Surface) (Alpha=1.100).
 Cavity algorithm     : GePol (No added spheres)
                        Default sphere list used, NSphG=   70.
                        Lebedev-Laikov grids with approx.  5.0 points / Ang**2.
                        Smoothing algorithm: York/Karplus (Gamma=1.0000).
                        Polarization charges: spherical gaussians, with
                                              point-specific exponents (IZeta= 3).
                        Self-potential: point-specific (ISelfS= 7).
                        Self-field    : sphere-specific E.n sum rule (ISelfD= 2).
 Solvent              : Water, Eps=  78.355300 Eps(inf)=   1.777849
 ------------------------------------------------------------------------------
 GePol: Number of generator spheres                  =      70
 GePol: Total number of spheres                      =      70
 GePol: Number of exposed spheres                    =      70 (100.00%)
 GePol: Number of points                             =    5130
 GePol: Average weight of points                     =       0.13
 GePol: Minimum weight of points                     =   0.45D-11
 GePol: Maximum weight of points                     =    0.20577
 GePol: Number of points with low weight             =     314
 GePol: Fraction of low-weight points (<1% of avg)   =       6.12%
 GePol: Cavity surface area                          =    667.315 Ang**2
 GePol: Cavity volume                                =    790.324 Ang**3
 Leave Link  301 at Sun Oct 12 04:35:52 2025, MaxMem= 30870077440 cpu:              12.5 elap:               0.2
 (Enter /work/home/accqbws0vm/apprepo/gaussian/16-hy/scripts/../app/g16/l302.exe)
 NPDir=0 NMtPBC=     1 NCelOv=     1 NCel=       1 NClECP=     1 NCelD=      1
         NCelK=      1 NCelE2=     1 NClLst=     1 CellRange=     0.0.
 One-electron integrals computed using PRISM.
 One-electron integral symmetry used in STVInt
   1 Symmetry operations used in ECPInt.
 ECPInt:  NShTT=  201930 NPrTT=  578290 LenC2=  127240 LenP2D=  249272.
 LDataN:  DoStor=T MaxTD1= 7 Len=  274
 Number of processors reduced to  56 by ecpmxn.
 NBasis=  1715 RedAO= T EigKep=  5.42D-06  NBF=  1715
 NBsUse=  1715 1.00D-06 EigRej= -1.00D+00 NBFU=  1715
 Precomputing XC quadrature grid using
 IXCGrd= 4 IRadAn=           5 IRanWt=          -1 IRanGd=           0 AccXCQ= 0.00D+00.
 Defaulting to unpruned grid for atomic number  53.
 Defaulting to unpruned grid for atomic number  53.
 Generated NRdTot=       0 NPtTot=           0 NUsed=           0 NTot=          32
 NSgBfM=  1719  1719  1719  1719  1719 MxSgAt=    70 MxSgA2=    70.
 Leave Link  302 at Sun Oct 12 04:36:03 2025, MaxMem= 30870077440 cpu:             653.7 elap:              10.4
 (Enter /work/home/accqbws0vm/apprepo/gaussian/16-hy/scripts/../app/g16/l303.exe)
 DipDrv:  MaxL=1.
 Leave Link  303 at Sun Oct 12 04:36:04 2025, MaxMem= 30870077440 cpu:              30.9 elap:               0.6
 (Enter /work/home/accqbws0vm/apprepo/gaussian/16-hy/scripts/../app/g16/l401.exe)
 ExpMin= 6.06D-02 ExpMax= 3.55D+04 ExpMxC= 1.21D+03 IAcc=3 IRadAn=         5 AccDes= 0.00D+00
 Harris functional with IExCor= 1009 and IRadAn=       5 diagonalized for initial guess.
 HarFok:  IExCor= 1009 AccDes= 0.00D+00 IRadAn=         5 IDoV= 1 UseB2=F ITyADJ=14
 ICtDFT=  3500011 ScaDFX=  1.000000  1.000000  1.000000  1.000000
 Defaulting to unpruned grid for atomic number  53.
 FoFCou: FMM=F IPFlag=           0 FMFlag=      100000 FMFlg1=        2001
         NFxFlg=           0 DoJE=T BraDBF=F KetDBF=T FulRan=T
         wScrn=  0.000000 ICntrl=       500 IOpCl=  0 I1Cent=   200000004 NGrid=           0
         NMat0=    1 NMatS0=      1 NMatT0=    0 NMatD0=    1 NMtDS0=    0 NMtDT0=    0
 Petite list used in FoFCou.
 Harris En= -2349.95673794479    
 JPrj=0 DoOrth=F DoCkMO=F.
 Initial guess <Sx>= 0.0000 <Sy>= 0.0000 <Sz>= 0.5000 <S**2>= 0.7500 S= 0.5000
 Leave Link  401 at Sun Oct 12 04:36:13 2025, MaxMem= 30870077440 cpu:             614.1 elap:               9.7
 (Enter /work/home/accqbws0vm/apprepo/gaussian/16-hy/scripts/../app/g16/l502.exe)
 Integral symmetry usage will be decided dynamically.
 UHF open shell SCF:
 Using DIIS extrapolation, IDIIS=  1040.
 NGot= 30870077440 LenX= 30862276060 LenY= 30858444254
 Requested convergence on RMS density matrix=1.00D-08 within 128 cycles.
 Requested convergence on MAX density matrix=1.00D-06.
 Requested convergence on             energy=1.00D-06.
 No special actions if energy rises.
 Fock matrices will be formed incrementally for  20 cycles.

 Cycle   1  Pass 1  IDiag  1:
 FoFJK:  IHMeth= 1 ICntrl=       0 DoSepK=F KAlg= 0 I1Cent=           0 FoldK=F
 IRaf= 600000000 NMat=       1 IRICut=       1 DoRegI=T DoRafI=F ISym2E= 0 IDoP0=0 IntGTp=1.
 FoFCou: FMM=T IPFlag=           0 FMFlag=      100000 FMFlg1=        2001
         NFxFlg=           0 DoJE=F BraDBF=F KetDBF=F FulRan=T
         wScrn=  0.000000 ICntrl=         0 IOpCl=  1 I1Cent=           0 NGrid=           0
         NMat0=    1 NMatS0=      1 NMatT0=    0 NMatD0=    1 NMtDS0=    0 NMtDT0=    0
 Symmetry not used in FoFCou.
 FMM levels:  10  Number of levels for PrismC:   9
 Defaulting to unpruned grid for atomic number  53.
 Defaulting to unpruned grid for atomic number  53.
 Defaulting to unpruned grid for atomic number  53.
 Defaulting to unpruned grid for atomic number  53.
 Defaulting to unpruned grid for atomic number  53.
 Defaulting to unpruned grid for atomic number  53.
 Defaulting to unpruned grid for atomic number  53.
 Defaulting to unpruned grid for atomic number  53.
 Defaulting to unpruned grid for atomic number  53.
 Defaulting to unpruned grid for atomic number  53.
 Defaulting to unpruned grid for atomic number  53.
 Defaulting to unpruned grid for atomic number  53.
 Defaulting to unpruned grid for atomic number  53.
 Defaulting to unpruned grid for atomic number  53.
 Defaulting to unpruned grid for atomic number  53.
 Defaulting to unpruned grid for atomic number  53.
 Defaulting to unpruned grid for atomic number  53.
 Defaulting to unpruned grid for atomic number  53.
 Defaulting to unpruned grid for atomic number  53.
 Defaulting to unpruned grid for atomic number  53.
 Defaulting to unpruned grid for atomic number  53.
 Defaulting to unpruned grid for atomic number  53.
 Defaulting to unpruned grid for atomic number  53.
 Defaulting to unpruned grid for atomic number  53.
 Defaulting to unpruned grid for atomic number  53.
 Defaulting to unpruned grid for atomic number  53.
 Defaulting to unpruned grid for atomic number  53.
 Defaulting to unpruned grid for atomic number  53.
 Defaulting to unpruned grid for atomic number  53.
 Defaulting to unpruned grid for atomic number  53.
 Defaulting to unpruned grid for atomic number  53.
 Defaulting to unpruned grid for atomic number  53.
 Defaulting to unpruned grid for atomic number  53.
 Defaulting to unpruned grid for atomic number  53.
 Defaulting to unpruned grid for atomic number  53.
 Defaulting to unpruned grid for atomic number  53.
 Defaulting to unpruned grid for atomic number  53.
 Defaulting to unpruned grid for atomic number  53.
 Defaulting to unpruned grid for atomic number  53.
 Defaulting to unpruned grid for atomic number  53.
 Defaulting to unpruned grid for atomic number  53.
 Defaulting to unpruned grid for atomic number  53.
 Defaulting to unpruned grid for atomic number  53.
 Defaulting to unpruned grid for atomic number  53.
 Defaulting to unpruned grid for atomic number  53.
 Defaulting to unpruned grid for atomic number  53.
 Defaulting to unpruned grid for atomic number  53.
 Defaulting to unpruned grid for atomic number  53.
 Defaulting to unpruned grid for atomic number  53.
 Defaulting to unpruned grid for atomic number  53.
 Defaulting to unpruned grid for atomic number  53.
 Defaulting to unpruned grid for atomic number  53.
 Defaulting to unpruned grid for atomic number  53.
 Defaulting to unpruned grid for atomic number  53.
 Defaulting to unpruned grid for atomic number  53.
 Defaulting to unpruned grid for atomic number  53.
 Defaulting to unpruned grid for atomic number  53.
 Defaulting to unpruned grid for atomic number  53.
 Defaulting to unpruned grid for atomic number  53.
 Defaulting to unpruned grid for atomic number  53.
 Defaulting to unpruned grid for atomic number  53.
 Defaulting to unpruned grid for atomic number  53.
 Defaulting to unpruned grid for atomic number  53.
 Defaulting to unpruned grid for atomic number  53.
 Inv3:  Mode=1 IEnd=    78950700.
 Iteration    1 A*A^-1 deviation from unit magnitude is 3.55D-15 for   1691.
 Iteration    1 A*A^-1 deviation from orthogonality  is 2.66D-15 for   2958   1125.
 Iteration    1 A^-1*A deviation from unit magnitude is 3.55D-15 for   1691.
 Iteration    1 A^-1*A deviation from orthogonality  is 2.44D-15 for   3331    292.
 E= -2348.95844736772    
 DIIS: error= 2.64D-02 at cycle   1 NSaved=   1.
 NSaved= 1 IEnMin= 1 EnMin= -2348.95844736772     IErMin= 1 ErrMin= 2.64D-02
 ErrMax= 2.64D-02  0.00D+00 EMaxC= 1.00D-01 BMatC= 5.83D+00 BMatP= 5.83D+00
 IDIUse=3 WtCom= 7.36D-01 WtEn= 2.64D-01
 Coeff-Com:  0.100D+01
 Coeff-En:   0.100D+01
 Coeff:      0.100D+01
 Gap=     0.063 Goal=   None    Shift=    0.000
 Gap=     0.262 Goal=   None    Shift=    0.000
 GapD=    0.063 DampG=0.500 DampE=0.500 DampFc=0.2500 IDamp=-1.
 Damping current iteration by 2.50D-01
 RMSDP=1.79D-03 MaxDP=2.86D-01              OVMax= 7.26D-01

 Cycle   2  Pass 1  IDiag  1:
 RMSU=  4.49D-04    CP:  9.99D-01
 E= -2349.36269380185     Delta-E=       -0.404246434134 Rises=F Damp=T
 DIIS: error= 1.10D-02 at cycle   2 NSaved=   2.
 NSaved= 2 IEnMin= 2 EnMin= -2349.36269380185     IErMin= 2 ErrMin= 1.10D-02
 ErrMax= 1.10D-02  0.00D+00 EMaxC= 1.00D-01 BMatC= 1.94D+00 BMatP= 5.83D+00
 IDIUse=3 WtCom= 8.90D-01 WtEn= 1.10D-01
 Coeff-Com: -0.106D+01 0.206D+01
 Coeff-En:   0.000D+00 0.100D+01
 Coeff:     -0.946D+00 0.195D+01
 Gap=     0.022 Goal=   None    Shift=    0.000
 Gap=     0.214 Goal=   None    Shift=    0.000
 RMSDP=1.17D-03 MaxDP=2.22D-01 DE=-4.04D-01 OVMax= 7.15D-01

 Cycle   3  Pass 1  IDiag  1:
 RMSU=  8.64D-04    CP:  9.98D-01  2.75D+00
 E= -2350.05337739291     Delta-E=       -0.690683591056 Rises=F Damp=F
 DIIS: error= 1.39D-02 at cycle   3 NSaved=   3.
 NSaved= 3 IEnMin= 3 EnMin= -2350.05337739291     IErMin= 2 ErrMin= 1.10D-02
 ErrMax= 1.39D-02  0.00D+00 EMaxC= 1.00D-01 BMatC= 3.36D-01 BMatP= 1.94D+00
 IDIUse=3 WtCom= 8.61D-01 WtEn= 1.39D-01
 Coeff-Com: -0.534D+00 0.945D+00 0.589D+00
 Coeff-En:   0.000D+00 0.000D+00 0.100D+01
 Coeff:     -0.460D+00 0.814D+00 0.646D+00
 Gap=     0.063 Goal=   None    Shift=    0.000
 Gap=     0.142 Goal=   None    Shift=    0.000
 RMSDP=3.61D-04 MaxDP=8.81D-02 DE=-6.91D-01 OVMax= 2.66D-01

 Cycle   4  Pass 1  IDiag  1:
 RMSU=  3.22D-04    CP:  9.90D-01  2.62D+00  8.32D-01
 E= -2350.11169970987     Delta-E=       -0.058322316967 Rises=F Damp=F
 DIIS: error= 6.64D-03 at cycle   4 NSaved=   4.
 NSaved= 4 IEnMin= 4 EnMin= -2350.11169970987     IErMin= 4 ErrMin= 6.64D-03
 ErrMax= 6.64D-03  0.00D+00 EMaxC= 1.00D-01 BMatC= 8.19D-02 BMatP= 3.36D-01
 IDIUse=3 WtCom= 9.34D-01 WtEn= 6.64D-02
 Coeff-Com: -0.707D-01 0.116D+00 0.340D+00 0.615D+00
 Coeff-En:   0.000D+00 0.000D+00 0.193D+00 0.807D+00
 Coeff:     -0.660D-01 0.108D+00 0.330D+00 0.628D+00
 Gap=     0.084 Goal=   None    Shift=    0.000
 Gap=     0.139 Goal=   None    Shift=    0.000
 RMSDP=1.51D-04 MaxDP=6.66D-02 DE=-5.83D-02 OVMax= 1.01D-01

 Cycle   5  Pass 1  IDiag  1:
 RMSU=  1.14D-04    CP:  9.92D-01  2.67D+00  8.94D-01  7.50D-01
 E= -2350.12956595181     Delta-E=       -0.017866241940 Rises=F Damp=F
 DIIS: error= 5.91D-04 at cycle   5 NSaved=   5.
 NSaved= 5 IEnMin= 5 EnMin= -2350.12956595181     IErMin= 5 ErrMin= 5.91D-04
 ErrMax= 5.91D-04  0.00D+00 EMaxC= 1.00D-01 BMatC= 4.36D-03 BMatP= 8.19D-02
 IDIUse=3 WtCom= 9.94D-01 WtEn= 5.91D-03
 Coeff-Com: -0.111D-01 0.150D-01 0.131D+00 0.307D+00 0.558D+00
 Coeff-En:   0.000D+00 0.000D+00 0.000D+00 0.000D+00 0.100D+01
 Coeff:     -0.111D-01 0.149D-01 0.130D+00 0.305D+00 0.561D+00
 Gap=     0.088 Goal=   None    Shift=    0.000
 Gap=     0.136 Goal=   None    Shift=    0.000
 RMSDP=4.97D-05 MaxDP=2.01D-02 DE=-1.79D-02 OVMax= 1.66D-02

 Cycle   6  Pass 1  IDiag  1:
 RMSU=  4.07D-05    CP:  9.91D-01  2.65D+00  8.83D-01  8.23D-01  9.37D-01
 E= -2350.13072837872     Delta-E=       -0.001162426907 Rises=F Damp=F
 DIIS: error= 1.96D-04 at cycle   6 NSaved=   6.
 NSaved= 6 IEnMin= 6 EnMin= -2350.13072837872     IErMin= 6 ErrMin= 1.96D-04
 ErrMax= 1.96D-04  0.00D+00 EMaxC= 1.00D-01 BMatC= 5.89D-04 BMatP= 4.36D-03
 IDIUse=3 WtCom= 9.98D-01 WtEn= 1.96D-03
 Coeff-Com:  0.412D-02-0.775D-02-0.190D-02 0.210D-01 0.263D+00 0.721D+00
 Coeff-En:   0.000D+00 0.000D+00 0.000D+00 0.000D+00 0.000D+00 0.100D+01
 Coeff:      0.411D-02-0.773D-02-0.190D-02 0.209D-01 0.263D+00 0.722D+00
 Gap=     0.091 Goal=   None    Shift=    0.000
 Gap=     0.137 Goal=   None    Shift=    0.000
 RMSDP=3.28D-05 MaxDP=1.52D-02 DE=-1.16D-03 OVMax= 1.34D-02

 Cycle   7  Pass 1  IDiag  1:
 RMSU=  1.86D-05    CP:  9.92D-01  2.66D+00  8.95D-01  8.21D-01  1.15D+00
                    CP:  1.04D+00
 E= -2350.13099664173     Delta-E=       -0.000268263004 Rises=F Damp=F
 DIIS: error= 9.67D-05 at cycle   7 NSaved=   7.
 NSaved= 7 IEnMin= 7 EnMin= -2350.13099664173     IErMin= 7 ErrMin= 9.67D-05
 ErrMax= 9.67D-05  0.00D+00 EMaxC= 1.00D-01 BMatC= 9.06D-05 BMatP= 5.89D-04
 IDIUse=1 WtCom= 1.00D+00 WtEn= 0.00D+00
 Coeff-Com:  0.308D-02-0.502D-02-0.231D-01-0.433D-01 0.197D-01 0.295D+00
 Coeff-Com:  0.753D+00
 Coeff:      0.308D-02-0.502D-02-0.231D-01-0.433D-01 0.197D-01 0.295D+00
 Coeff:      0.753D+00
 Gap=     0.092 Goal=   None    Shift=    0.000
 Gap=     0.138 Goal=   None    Shift=    0.000
 RMSDP=1.48D-05 MaxDP=3.15D-03 DE=-2.68D-04 OVMax= 6.72D-03

 Cycle   8  Pass 1  IDiag  1:
 RMSU=  6.89D-06    CP:  9.92D-01  2.66D+00  8.97D-01  8.32D-01  1.22D+00
                    CP:  1.21D+00  1.33D+00
 E= -2350.13106168004     Delta-E=       -0.000065038318 Rises=F Damp=F
 DIIS: error= 4.60D-05 at cycle   8 NSaved=   8.
 NSaved= 8 IEnMin= 8 EnMin= -2350.13106168004     IErMin= 8 ErrMin= 4.60D-05
 ErrMax= 4.60D-05  0.00D+00 EMaxC= 1.00D-01 BMatC= 2.39D-05 BMatP= 9.06D-05
 IDIUse=1 WtCom= 1.00D+00 WtEn= 0.00D+00
 Coeff-Com: -0.548D-03 0.105D-02-0.849D-02-0.211D-01-0.505D-01-0.553D-01
 Coeff-Com:  0.323D+00 0.812D+00
 Coeff:     -0.548D-03 0.105D-02-0.849D-02-0.211D-01-0.505D-01-0.553D-01
 Coeff:      0.323D+00 0.812D+00
 Gap=     0.093 Goal=   None    Shift=    0.000
 Gap=     0.138 Goal=   None    Shift=    0.000
 RMSDP=9.21D-06 MaxDP=2.53D-03 DE=-6.50D-05 OVMax= 4.30D-03

 Cycle   9  Pass 1  IDiag  1:
 RMSU=  3.37D-06    CP:  9.92D-01  2.66D+00  8.99D-01  8.35D-01  1.26D+00
                    CP:  1.29D+00  1.64D+00  1.31D+00
 E= -2350.13108122592     Delta-E=       -0.000019545873 Rises=F Damp=F
 DIIS: error= 2.09D-05 at cycle   9 NSaved=   9.
 NSaved= 9 IEnMin= 9 EnMin= -2350.13108122592     IErMin= 9 ErrMin= 2.09D-05
 ErrMax= 2.09D-05  0.00D+00 EMaxC= 1.00D-01 BMatC= 4.14D-06 BMatP= 2.39D-05
 IDIUse=1 WtCom= 1.00D+00 WtEn= 0.00D+00
 Coeff-Com: -0.708D-03 0.118D-02 0.242D-02 0.352D-02-0.183D-01-0.877D-01
 Coeff-Com: -0.616D-01 0.248D+00 0.913D+00
 Coeff:     -0.708D-03 0.118D-02 0.242D-02 0.352D-02-0.183D-01-0.877D-01
 Coeff:     -0.616D-01 0.248D+00 0.913D+00
 Gap=     0.093 Goal=   None    Shift=    0.000
 Gap=     0.139 Goal=   None    Shift=    0.000
 RMSDP=4.70D-06 MaxDP=1.36D-03 DE=-1.95D-05 OVMax= 1.86D-03

 Cycle  10  Pass 1  IDiag  1:
 RMSU=  1.42D-06    CP:  9.92D-01  2.66D+00  9.00D-01  8.35D-01  1.28D+00
                    CP:  1.33D+00  1.79D+00  1.59D+00  1.38D+00
 E= -2350.13108567953     Delta-E=       -0.000004453608 Rises=F Damp=F
 DIIS: error= 1.55D-05 at cycle  10 NSaved=  10.
 NSaved=10 IEnMin=10 EnMin= -2350.13108567953     IErMin=10 ErrMin= 1.55D-05
 ErrMax= 1.55D-05  0.00D+00 EMaxC= 1.00D-01 BMatC= 1.41D-06 BMatP= 4.14D-06
 IDIUse=1 WtCom= 1.00D+00 WtEn= 0.00D+00
 Coeff-Com: -0.160D-03 0.267D-03 0.296D-02 0.589D-02 0.240D-02-0.285D-01
 Coeff-Com: -0.917D-01-0.663D-01 0.428D+00 0.748D+00
 Coeff:     -0.160D-03 0.267D-03 0.296D-02 0.589D-02 0.240D-02-0.285D-01
 Coeff:     -0.917D-01-0.663D-01 0.428D+00 0.748D+00
 Gap=     0.093 Goal=   None    Shift=    0.000
 Gap=     0.139 Goal=   None    Shift=    0.000
 RMSDP=1.71D-06 MaxDP=3.22D-04 DE=-4.45D-06 OVMax= 7.21D-04

 Cycle  11  Pass 1  IDiag  1:
 RMSU=  7.15D-07    CP:  9.92D-01  2.66D+00  9.00D-01  8.36D-01  1.29D+00
                    CP:  1.34D+00  1.84D+00  1.68D+00  1.58D+00  1.30D+00
 E= -2350.13108668978     Delta-E=       -0.000001010256 Rises=F Damp=F
 DIIS: error= 9.80D-06 at cycle  11 NSaved=  11.
 NSaved=11 IEnMin=11 EnMin= -2350.13108668978     IErMin=11 ErrMin= 9.80D-06
 ErrMax= 9.80D-06  0.00D+00 EMaxC= 1.00D-01 BMatC= 3.10D-07 BMatP= 1.41D-06
 IDIUse=1 WtCom= 1.00D+00 WtEn= 0.00D+00
 Coeff-Com:  0.176D-03-0.266D-03 0.560D-03 0.953D-03 0.505D-02 0.124D-01
 Coeff-Com: -0.103D-01-0.855D-01-0.715D-01 0.222D+00 0.926D+00
 Coeff:      0.176D-03-0.266D-03 0.560D-03 0.953D-03 0.505D-02 0.124D-01
 Coeff:     -0.103D-01-0.855D-01-0.715D-01 0.222D+00 0.926D+00
 Gap=     0.093 Goal=   None    Shift=    0.000
 Gap=     0.139 Goal=   None    Shift=    0.000
 RMSDP=9.38D-07 MaxDP=1.96D-04 DE=-1.01D-06 OVMax= 5.94D-04

 Cycle  12  Pass 1  IDiag  1:
 RMSU=  4.51D-07    CP:  9.92D-01  2.66D+00  9.01D-01  8.36D-01  1.29D+00
                    CP:  1.34D+00  1.86D+00  1.70D+00  1.69D+00  1.63D+00
                    CP:  1.50D+00
 E= -2350.13108703938     Delta-E=       -0.000000349594 Rises=F Damp=F
 DIIS: error= 8.90D-06 at cycle  12 NSaved=  12.
 NSaved=12 IEnMin=12 EnMin= -2350.13108703938     IErMin=12 ErrMin= 8.90D-06
 ErrMax= 8.90D-06  0.00D+00 EMaxC= 1.00D-01 BMatC= 1.10D-07 BMatP= 3.10D-07
 IDIUse=1 WtCom= 1.00D+00 WtEn= 0.00D+00
 Coeff-Com:  0.188D-03-0.289D-03-0.524D-03-0.142D-02 0.120D-02 0.140D-01
 Coeff-Com:  0.239D-01-0.207D-01-0.143D+00-0.135D+00 0.364D+00 0.897D+00
 Coeff:      0.188D-03-0.289D-03-0.524D-03-0.142D-02 0.120D-02 0.140D-01
 Coeff:      0.239D-01-0.207D-01-0.143D+00-0.135D+00 0.364D+00 0.897D+00
 Gap=     0.093 Goal=   None    Shift=    0.000
 Gap=     0.139 Goal=   None    Shift=    0.000
 RMSDP=6.05D-07 MaxDP=6.72D-05 DE=-3.50D-07 OVMax= 5.93D-04

 Cycle  13  Pass 1  IDiag  1:
 RMSU=  2.19D-07    CP:  9.92D-01  2.66D+00  9.01D-01  8.36D-01  1.29D+00
                    CP:  1.34D+00  1.86D+00  1.70D+00  1.74D+00  1.84D+00
                    CP:  1.96D+00  1.64D+00
 E= -2350.13108719364     Delta-E=       -0.000000154263 Rises=F Damp=F
 DIIS: error= 4.78D-06 at cycle  13 NSaved=  13.
 NSaved=13 IEnMin=13 EnMin= -2350.13108719364     IErMin=13 ErrMin= 4.78D-06
 ErrMax= 4.78D-06  0.00D+00 EMaxC= 1.00D-01 BMatC= 4.26D-08 BMatP= 1.10D-07
 IDIUse=1 WtCom= 1.00D+00 WtEn= 0.00D+00
 Coeff-Com:  0.241D-04-0.307D-04-0.149D-03-0.699D-03-0.128D-02 0.801D-03
 Coeff-Com:  0.110D-01 0.118D-01-0.135D-01-0.982D-01-0.155D+00 0.322D+00
 Coeff-Com:  0.924D+00
 Coeff:      0.241D-04-0.307D-04-0.149D-03-0.699D-03-0.128D-02 0.801D-03
 Coeff:      0.110D-01 0.118D-01-0.135D-01-0.982D-01-0.155D+00 0.322D+00
 Coeff:      0.924D+00
 Gap=     0.093 Goal=   None    Shift=    0.000
 Gap=     0.139 Goal=   None    Shift=    0.000
 RMSDP=4.54D-07 MaxDP=6.03D-05 DE=-1.54D-07 OVMax= 4.92D-04

 Cycle  14  Pass 1  IDiag  1:
 RMSU=  1.66D-07    CP:  9.92D-01  2.66D+00  9.01D-01  8.35D-01  1.29D+00
                    CP:  1.34D+00  1.86D+00  1.70D+00  1.76D+00  1.94D+00
                    CP:  2.24D+00  2.26D+00  1.68D+00
 E= -2350.13108726548     Delta-E=       -0.000000071842 Rises=F Damp=F
 DIIS: error= 4.18D-06 at cycle  14 NSaved=  14.
 NSaved=14 IEnMin=14 EnMin= -2350.13108726548     IErMin=14 ErrMin= 4.18D-06
 ErrMax= 4.18D-06  0.00D+00 EMaxC= 1.00D-01 BMatC= 2.04D-08 BMatP= 4.26D-08
 IDIUse=1 WtCom= 1.00D+00 WtEn= 0.00D+00
 Coeff-Com: -0.246D-05 0.109D-04 0.210D-03 0.151D-03-0.787D-03-0.356D-02
 Coeff-Com: -0.265D-02 0.290D-02 0.422D-01 0.971D-02-0.147D+00-0.848D-01
 Coeff-Com:  0.214D+00 0.970D+00
 Coeff:     -0.246D-05 0.109D-04 0.210D-03 0.151D-03-0.787D-03-0.356D-02
 Coeff:     -0.265D-02 0.290D-02 0.422D-01 0.971D-02-0.147D+00-0.848D-01
 Coeff:      0.214D+00 0.970D+00
 Gap=     0.093 Goal=   None    Shift=    0.000
 Gap=     0.139 Goal=   None    Shift=    0.000
 RMSDP=3.40D-07 MaxDP=5.07D-05 DE=-7.18D-08 OVMax= 4.34D-04

 Cycle  15  Pass 1  IDiag  1:
 RMSU=  1.04D-07    CP:  9.92D-01  2.66D+00  9.01D-01  8.35D-01  1.29D+00
                    CP:  1.34D+00  1.87D+00  1.70D+00  1.77D+00  1.99D+00
                    CP:  2.36D+00  2.67D+00  2.40D+00  1.94D+00
 E= -2350.13108731087     Delta-E=       -0.000000045394 Rises=F Damp=F
 DIIS: error= 3.62D-06 at cycle  15 NSaved=  15.
 NSaved=15 IEnMin=15 EnMin= -2350.13108731087     IErMin=15 ErrMin= 3.62D-06
 ErrMax= 3.62D-06  0.00D+00 EMaxC= 1.00D-01 BMatC= 1.70D-08 BMatP= 2.04D-08
 IDIUse=1 WtCom= 1.00D+00 WtEn= 0.00D+00
 Coeff-Com:  0.138D-04-0.143D-04 0.257D-03 0.324D-03 0.807D-04-0.211D-02
 Coeff-Com: -0.446D-02-0.846D-02 0.323D-01 0.490D-01-0.654D-02-0.136D+00
 Coeff-Com: -0.380D+00 0.434D+00 0.102D+01
 Coeff:      0.138D-04-0.143D-04 0.257D-03 0.324D-03 0.807D-04-0.211D-02
 Coeff:     -0.446D-02-0.846D-02 0.323D-01 0.490D-01-0.654D-02-0.136D+00
 Coeff:     -0.380D+00 0.434D+00 0.102D+01
 Gap=     0.093 Goal=   None    Shift=    0.000
 Gap=     0.139 Goal=   None    Shift=    0.000
 RMSDP=3.98D-07 MaxDP=5.22D-05 DE=-4.54D-08 OVMax= 5.08D-04

 Cycle  16  Pass 1  IDiag  1:
 RMSU=  9.99D-08    CP:  9.92D-01  2.66D+00  9.01D-01  8.35D-01  1.29D+00
                    CP:  1.34D+00  1.87D+00  1.69D+00  1.78D+00  2.03D+00
                    CP:  2.47D+00  3.00D+00  3.00D+00  3.00D+00  2.30D+00
 E= -2350.13108735695     Delta-E=       -0.000000046073 Rises=F Damp=F
 DIIS: error= 3.36D-06 at cycle  16 NSaved=  16.
 NSaved=16 IEnMin=16 EnMin= -2350.13108735695     IErMin=16 ErrMin= 3.36D-06
 ErrMax= 3.36D-06  0.00D+00 EMaxC= 1.00D-01 BMatC= 1.33D-08 BMatP= 1.70D-08
 IDIUse=1 WtCom= 1.00D+00 WtEn= 0.00D+00
 Coeff-Com:  0.253D-04-0.329D-04 0.163D-03 0.150D-03 0.375D-03-0.219D-04
 Coeff-Com: -0.102D-02-0.109D-01 0.884D-02 0.323D-01 0.568D-01-0.282D-01
 Coeff-Com: -0.403D+00-0.134D+00 0.456D+00 0.102D+01
 Coeff:      0.253D-04-0.329D-04 0.163D-03 0.150D-03 0.375D-03-0.219D-04
 Coeff:     -0.102D-02-0.109D-01 0.884D-02 0.323D-01 0.568D-01-0.282D-01
 Coeff:     -0.403D+00-0.134D+00 0.456D+00 0.102D+01
 Gap=     0.093 Goal=   None    Shift=    0.000
 Gap=     0.139 Goal=   None    Shift=    0.000
 RMSDP=4.47D-07 MaxDP=5.56D-05 DE=-4.61D-08 OVMax= 5.73D-04

 Cycle  17  Pass 1  IDiag  1:
 RMSU=  2.50D-07    CP:  9.92D-01  2.66D+00  9.01D-01  8.35D-01  1.29D+00
                    CP:  1.34D+00  1.87D+00  1.68D+00  1.80D+00  2.06D+00
                    CP:  2.58D+00  3.00D+00  3.00D+00  3.00D+00  3.00D+00
                    CP:  3.00D+00
 E= -2350.13108740243     Delta-E=       -0.000000045487 Rises=F Damp=F
 DIIS: error= 2.93D-06 at cycle  17 NSaved=  17.
 NSaved=17 IEnMin=17 EnMin= -2350.13108740243     IErMin=17 ErrMin= 2.93D-06
 ErrMax= 2.93D-06  0.00D+00 EMaxC= 1.00D-01 BMatC= 1.05D-08 BMatP= 1.33D-08
 IDIUse=1 WtCom= 1.00D+00 WtEn= 0.00D+00
 Coeff-Com:  0.280D-04-0.400D-04 0.621D-05-0.160D-03 0.157D-03 0.145D-02
 Coeff-Com:  0.396D-02-0.533D-02-0.136D-01-0.156D-01 0.361D-01 0.139D+00
 Coeff-Com:  0.178D-01-0.448D+00-0.970D+00 0.748D+00 0.151D+01
 Coeff:      0.280D-04-0.400D-04 0.621D-05-0.160D-03 0.157D-03 0.145D-02
 Coeff:      0.396D-02-0.533D-02-0.136D-01-0.156D-01 0.361D-01 0.139D+00
 Coeff:      0.178D-01-0.448D+00-0.970D+00 0.748D+00 0.151D+01
 Gap=     0.093 Goal=   None    Shift=    0.000
 Gap=     0.139 Goal=   None    Shift=    0.000
 RMSDP=8.76D-07 MaxDP=1.10D-04 DE=-4.55D-08 OVMax= 1.13D-03

 Cycle  18  Pass 1  IDiag  1:
 RMSU=  4.37D-07    CP:  9.92D-01  2.66D+00  9.01D-01  8.35D-01  1.29D+00
                    CP:  1.34D+00  1.88D+00  1.67D+00  1.82D+00  2.12D+00
                    CP:  2.76D+00  3.00D+00  3.00D+00  3.00D+00  3.00D+00
                    CP:  3.00D+00  3.00D+00
 E= -2350.13108747508     Delta-E=       -0.000000072650 Rises=F Damp=F
 DIIS: error= 2.22D-06 at cycle  18 NSaved=  18.
 NSaved=18 IEnMin=18 EnMin= -2350.13108747508     IErMin=18 ErrMin= 2.22D-06
 ErrMax= 2.22D-06  0.00D+00 EMaxC= 1.00D-01 BMatC= 6.49D-09 BMatP= 1.05D-08
 IDIUse=1 WtCom= 1.00D+00 WtEn= 0.00D+00
 Coeff-Com:  0.404D-05-0.573D-05 0.399D-05-0.114D-03-0.409D-03-0.618D-03
 Coeff-Com:  0.186D-02 0.411D-02 0.418D-02-0.224D-01-0.678D-01 0.685D-01
 Coeff-Com:  0.317D+00 0.181D+00-0.888D+00-0.946D+00 0.709D+00 0.164D+01
 Coeff:      0.404D-05-0.573D-05 0.399D-05-0.114D-03-0.409D-03-0.618D-03
 Coeff:      0.186D-02 0.411D-02 0.418D-02-0.224D-01-0.678D-01 0.685D-01
 Coeff:      0.317D+00 0.181D+00-0.888D+00-0.946D+00 0.709D+00 0.164D+01
 Gap=     0.093 Goal=   None    Shift=    0.000
 Gap=     0.139 Goal=   None    Shift=    0.000
 RMSDP=1.18D-06 MaxDP=1.47D-04 DE=-7.27D-08 OVMax= 1.52D-03

 Cycle  19  Pass 1  IDiag  1:
 RMSU=  5.54D-07    CP:  9.92D-01  2.66D+00  9.01D-01  8.35D-01  1.28D+00
                    CP:  1.34D+00  1.88D+00  1.65D+00  1.86D+00  2.20D+00
                    CP:  2.99D+00  3.00D+00  3.00D+00  3.00D+00  3.00D+00
                    CP:  3.00D+00  3.00D+00  3.00D+00
 E= -2350.13108754096     Delta-E=       -0.000000065876 Rises=F Damp=F
 DIIS: error= 1.37D-06 at cycle  19 NSaved=  19.
 NSaved=19 IEnMin=19 EnMin= -2350.13108754096     IErMin=19 ErrMin= 1.37D-06
 ErrMax= 1.37D-06  0.00D+00 EMaxC= 1.00D-01 BMatC= 2.79D-09 BMatP= 6.49D-09
 IDIUse=1 WtCom= 1.00D+00 WtEn= 0.00D+00
 Coeff-Com: -0.844D-05 0.139D-04 0.502D-04 0.422D-04-0.394D-03-0.165D-02
 Coeff-Com: -0.134D-02 0.443D-02 0.172D-01-0.305D-03-0.733D-01-0.449D-01
 Coeff-Com:  0.154D+00 0.463D+00 0.321D-01-0.112D+01-0.437D+00 0.968D+00
 Coeff-Com:  0.104D+01
 Coeff:     -0.844D-05 0.139D-04 0.502D-04 0.422D-04-0.394D-03-0.165D-02
 Coeff:     -0.134D-02 0.443D-02 0.172D-01-0.305D-03-0.733D-01-0.449D-01
 Coeff:      0.154D+00 0.463D+00 0.321D-01-0.112D+01-0.437D+00 0.968D+00
 Coeff:      0.104D+01
 Gap=     0.093 Goal=   None    Shift=    0.000
 Gap=     0.139 Goal=   None    Shift=    0.000
 RMSDP=8.57D-07 MaxDP=1.06D-04 DE=-6.59D-08 OVMax= 1.10D-03

 Cycle  20  Pass 1  IDiag  1:
 RMSU=  6.33D-07    CP:  9.92D-01  2.66D+00  9.01D-01  8.35D-01  1.28D+00
                    CP:  1.34D+00  1.88D+00  1.63D+00  1.88D+00  2.25D+00
                    CP:  3.00D+00  3.00D+00  3.00D+00  3.00D+00  3.00D+00
                    CP:  3.00D+00  3.00D+00  3.00D+00  1.97D+00
 E= -2350.13108756657     Delta-E=       -0.000000025610 Rises=F Damp=F
 DIIS: error= 6.05D-07 at cycle  20 NSaved=  20.
 NSaved=20 IEnMin=20 EnMin= -2350.13108756657     IErMin=20 ErrMin= 6.05D-07
 ErrMax= 6.05D-07  0.00D+00 EMaxC= 1.00D-01 BMatC= 8.86D-10 BMatP= 2.79D-09
 IDIUse=1 WtCom= 1.00D+00 WtEn= 0.00D+00
 Coeff-Com: -0.224D-07 0.154D-05 0.505D-04 0.874D-04 0.175D-06-0.651D-03
 Coeff-Com: -0.172D-02-0.105D-02 0.939D-02 0.142D-01-0.276D-02-0.578D-01
 Coeff-Com: -0.115D+00 0.160D+00 0.469D+00-0.572D-01-0.516D+00-0.417D+00
 Coeff-Com:  0.478D+00 0.104D+01
 Coeff:     -0.224D-07 0.154D-05 0.505D-04 0.874D-04 0.175D-06-0.651D-03
 Coeff:     -0.172D-02-0.105D-02 0.939D-02 0.142D-01-0.276D-02-0.578D-01
 Coeff:     -0.115D+00 0.160D+00 0.469D+00-0.572D-01-0.516D+00-0.417D+00
 Coeff:      0.478D+00 0.104D+01
 Gap=     0.093 Goal=   None    Shift=    0.000
 Gap=     0.139 Goal=   None    Shift=    0.000
 RMSDP=4.28D-07 MaxDP=5.23D-05 DE=-2.56D-08 OVMax= 5.52D-04

 Cycle  21  Pass 1  IDiag  1:
 Restarting incremental Fock formation.
 E= -2350.13108757274     Delta-E=       -0.000000006169 Rises=F Damp=F
 DIIS: error= 3.27D-07 at cycle  21 NSaved=  20.
 NSaved=20 IEnMin=20 EnMin= -2350.13108757274     IErMin=20 ErrMin= 3.27D-07
 ErrMax= 3.27D-07  0.00D+00 EMaxC= 1.00D-01 BMatC= 2.33D-10 BMatP= 8.86D-10
 IDIUse=1 WtCom= 1.00D+00 WtEn= 0.00D+00
 Coeff-Com:  0.125D-05 0.134D-04 0.216D-04 0.807D-04 0.163D-03-0.231D-03
 Coeff-Com: -0.162D-02-0.529D-03 0.448D-02 0.162D-01-0.554D-02-0.771D-01
 Coeff-Com: -0.750D-01 0.118D+00 0.286D+00-0.409D-03-0.421D+00-0.198D+00
 Coeff-Com:  0.318D+00 0.104D+01
 Coeff:      0.125D-05 0.134D-04 0.216D-04 0.807D-04 0.163D-03-0.231D-03
 Coeff:     -0.162D-02-0.529D-03 0.448D-02 0.162D-01-0.554D-02-0.771D-01
 Coeff:     -0.750D-01 0.118D+00 0.286D+00-0.409D-03-0.421D+00-0.198D+00
 Coeff:      0.318D+00 0.104D+01
 Gap=     0.093 Goal=   None    Shift=    0.000
 Gap=     0.139 Goal=   None    Shift=    0.000
 RMSDP=2.22D-07 MaxDP=2.70D-05 DE=-6.17D-09 OVMax= 2.86D-04

 Cycle  22  Pass 1  IDiag  1:
 RMSU=  2.21D-07    CP:  1.00D+00
 E= -2350.13108757411     Delta-E=       -0.000000001374 Rises=F Damp=F
 DIIS: error= 1.42D-07 at cycle  22 NSaved=  20.
 NSaved=20 IEnMin=20 EnMin= -2350.13108757411     IErMin=20 ErrMin= 1.42D-07
 ErrMax= 1.42D-07  0.00D+00 EMaxC= 1.00D-01 BMatC= 6.58D-11 BMatP= 2.33D-10
 IDIUse=1 WtCom= 1.00D+00 WtEn= 0.00D+00
 Coeff-Com: -0.850D-05-0.185D-04 0.392D-04 0.297D-03 0.491D-03-0.570D-03
 Coeff-Com: -0.301D-02-0.265D-02 0.788D-02 0.169D-01 0.342D-02-0.877D-01
 Coeff-Com: -0.100D+00 0.143D+00 0.181D+00-0.454D-01-0.240D+00-0.195D+00
 Coeff-Com:  0.395D+00 0.927D+00
 Coeff:     -0.850D-05-0.185D-04 0.392D-04 0.297D-03 0.491D-03-0.570D-03
 Coeff:     -0.301D-02-0.265D-02 0.788D-02 0.169D-01 0.342D-02-0.877D-01
 Coeff:     -0.100D+00 0.143D+00 0.181D+00-0.454D-01-0.240D+00-0.195D+00
 Coeff:      0.395D+00 0.927D+00
 Gap=     0.093 Goal=   None    Shift=    0.000
 Gap=     0.139 Goal=   None    Shift=    0.000
 RMSDP=4.54D-08 MaxDP=4.94D-06 DE=-1.37D-09 OVMax= 5.50D-05

 Cycle  23  Pass 1  IDiag  1:
 RMSU=  1.48D-08    CP:  1.00D+00  1.19D+00
 E= -2350.13108757430     Delta-E=       -0.000000000191 Rises=F Damp=F
 DIIS: error= 7.92D-08 at cycle  23 NSaved=  20.
 NSaved=20 IEnMin=20 EnMin= -2350.13108757430     IErMin=20 ErrMin= 7.92D-08
 ErrMax= 7.92D-08  0.00D+00 EMaxC= 1.00D-01 BMatC= 2.36D-11 BMatP= 6.58D-11
 IDIUse=1 WtCom= 1.00D+00 WtEn= 0.00D+00
 Coeff-Com:  0.273D-05 0.298D-05-0.215D-05 0.511D-04 0.442D-04-0.102D-03
 Coeff-Com: -0.761D-03-0.162D-02 0.286D-02 0.159D-01-0.351D-03-0.425D-01
 Coeff-Com: -0.482D-01 0.463D-01 0.116D+00-0.714D-02-0.161D+00-0.249D+00
 Coeff-Com:  0.339D+00 0.992D+00
 Coeff:      0.273D-05 0.298D-05-0.215D-05 0.511D-04 0.442D-04-0.102D-03
 Coeff:     -0.761D-03-0.162D-02 0.286D-02 0.159D-01-0.351D-03-0.425D-01
 Coeff:     -0.482D-01 0.463D-01 0.116D+00-0.714D-02-0.161D+00-0.249D+00
 Coeff:      0.339D+00 0.992D+00
 Gap=     0.093 Goal=   None    Shift=    0.000
 Gap=     0.139 Goal=   None    Shift=    0.000
 RMSDP=1.41D-08 MaxDP=2.23D-06 DE=-1.91D-10 OVMax= 1.09D-05

 Cycle  24  Pass 1  IDiag  1:
 RMSU=  5.26D-09    CP:  1.00D+00  1.19D+00  1.88D+00
 E= -2350.13108757426     Delta-E=        0.000000000046 Rises=F Damp=F
 DIIS: error= 3.81D-08 at cycle  24 NSaved=  20.
 NSaved=20 IEnMin=19 EnMin= -2350.13108757430     IErMin=20 ErrMin= 3.81D-08
 ErrMax= 3.81D-08  0.00D+00 EMaxC= 1.00D-01 BMatC= 8.11D-12 BMatP= 2.36D-11
 IDIUse=1 WtCom= 1.00D+00 WtEn= 0.00D+00
 Coeff-Com: -0.287D-04-0.108D-03-0.336D-04 0.443D-03 0.811D-03-0.461D-03
 Coeff-Com: -0.490D-02-0.253D-02 0.153D-01 0.270D-01-0.267D-02-0.814D-01
 Coeff-Com: -0.260D-01 0.815D-01 0.726D-01-0.234D-01-0.254D+00-0.133D+00
 Coeff-Com:  0.378D+00 0.953D+00
 Coeff:     -0.287D-04-0.108D-03-0.336D-04 0.443D-03 0.811D-03-0.461D-03
 Coeff:     -0.490D-02-0.253D-02 0.153D-01 0.270D-01-0.267D-02-0.814D-01
 Coeff:     -0.260D-01 0.815D-01 0.726D-01-0.234D-01-0.254D+00-0.133D+00
 Coeff:      0.378D+00 0.953D+00
 Gap=     0.093 Goal=   None    Shift=    0.000
 Gap=     0.139 Goal=   None    Shift=    0.000
 RMSDP=2.31D-08 MaxDP=3.23D-06 DE= 4.64D-11 OVMax= 2.75D-05

 Cycle  25  Pass 1  IDiag  1:
 RMSU=  4.29D-09    CP:  1.00D+00  1.28D+00  2.25D+00  1.61D+00
 E= -2350.13108757422     Delta-E=        0.000000000037 Rises=F Damp=F
 DIIS: error= 2.02D-08 at cycle  25 NSaved=  20.
 NSaved=20 IEnMin=18 EnMin= -2350.13108757430     IErMin=20 ErrMin= 2.02D-08
 ErrMax= 2.02D-08  0.00D+00 EMaxC= 1.00D-01 BMatC= 1.82D-12 BMatP= 8.11D-12
 IDIUse=1 WtCom= 1.00D+00 WtEn= 0.00D+00
 Coeff-Com: -0.105D-04-0.186D-04 0.245D-04 0.159D-03 0.249D-03 0.153D-03
 Coeff-Com: -0.187D-02-0.328D-02 0.297D-02 0.162D-01-0.587D-05-0.185D-01
 Coeff-Com: -0.238D-01 0.161D-01 0.443D-01 0.156D-01-0.111D+00-0.211D+00
 Coeff-Com:  0.225D+00 0.105D+01
 Coeff:     -0.105D-04-0.186D-04 0.245D-04 0.159D-03 0.249D-03 0.153D-03
 Coeff:     -0.187D-02-0.328D-02 0.297D-02 0.162D-01-0.587D-05-0.185D-01
 Coeff:     -0.238D-01 0.161D-01 0.443D-01 0.156D-01-0.111D+00-0.211D+00
 Coeff:      0.225D+00 0.105D+01
 Gap=     0.093 Goal=   None    Shift=    0.000
 Gap=     0.139 Goal=   None    Shift=    0.000
 RMSDP=1.54D-08 MaxDP=2.45D-06 DE= 3.73D-11 OVMax= 1.86D-05

 Cycle  26  Pass 1  IDiag  1:
 RMSU=  1.76D-09    CP:  1.00D+00  1.35D+00  2.34D+00  2.01D+00  1.60D+00
 E= -2350.13108757433     Delta-E=       -0.000000000115 Rises=F Damp=F
 DIIS: error= 1.61D-08 at cycle  26 NSaved=  20.
 NSaved=20 IEnMin=20 EnMin= -2350.13108757433     IErMin=20 ErrMin= 1.61D-08
 ErrMax= 1.61D-08  0.00D+00 EMaxC= 1.00D-01 BMatC= 7.07D-13 BMatP= 1.82D-12
 IDIUse=1 WtCom= 1.00D+00 WtEn= 0.00D+00
 Coeff-Com: -0.830D-05-0.460D-04 0.310D-04 0.195D-03 0.596D-03-0.515D-03
 Coeff-Com: -0.330D-02-0.181D-02 0.917D-02 0.114D-01-0.454D-02-0.235D-01
 Coeff-Com: -0.188D-02 0.256D-01 0.483D-01-0.261D-01-0.160D+00-0.104D+00
 Coeff-Com:  0.404D+00 0.827D+00
 Coeff:     -0.830D-05-0.460D-04 0.310D-04 0.195D-03 0.596D-03-0.515D-03
 Coeff:     -0.330D-02-0.181D-02 0.917D-02 0.114D-01-0.454D-02-0.235D-01
 Coeff:     -0.188D-02 0.256D-01 0.483D-01-0.261D-01-0.160D+00-0.104D+00
 Coeff:      0.404D+00 0.827D+00
 Gap=     0.093 Goal=   None    Shift=    0.000
 Gap=     0.139 Goal=   None    Shift=    0.000
 RMSDP=7.10D-09 MaxDP=8.52D-07 DE=-1.15D-10 OVMax= 8.90D-06

 Error on total polarization charges =  0.02932
 SCF Done:  E(UM062X) =  -2350.13108757     A.U. after   26 cycles
            NFock= 26  Conv=0.71D-08     -V/T= 2.1916
 <Sx>= 0.0000 <Sy>= 0.0000 <Sz>= 0.5000 <S**2>= 0.7771 S= 0.5135
 <L.S>=  0.00000000000    
 KE= 1.972269140156D+03 PE=-1.577097302616D+04 EE= 6.255482571783D+03
 Annihilation of the first spin contaminant:
 S**2 before annihilation     0.7771,   after     0.7505
 Leave Link  502 at Sun Oct 12 05:12:39 2025, MaxMem= 30870077440 cpu:          138120.3 elap:            2185.0
 (Enter /work/home/accqbws0vm/apprepo/gaussian/16-hy/scripts/../app/g16/l601.exe)
 Copying SCF densities to generalized density rwf, IOpCl= 1 IROHF=0.

 **********************************************************************

            Population analysis using the SCF density.

 **********************************************************************

 Orbital symmetries:
 Alpha Orbitals:
       Occupied  (A) (A) (A) (A) (A) (A) (A) (A) (A) (A) (A) (A)
                 (A) (A) (A) (A) (A) (A) (A) (A) (A) (A) (A) (A)
                 (A) (A) (A) (A) (A) (A) (A) (A) (A) (A) (A) (A)
                 (A) (A) (A) (A) (A) (A) (A) (A) (A) (A) (A) (A)
                 (A) (A) (A) (A) (A) (A) (A) (A) (A) (A) (A) (A)
                 (A) (A) (A) (A) (A) (A) (A) (A) (A) (A) (A) (A)
                 (A) (A) (A) (A) (A) (A) (A) (A) (A) (A) (A) (A)
                 (A) (A) (A) (A) (A) (A) (A) (A) (A) (A) (A) (A)
                 (A) (A) (A) (A) (A) (A) (A) (A) (A) (A) (A) (A)
                 (A) (A) (A) (A) (A) (A) (A) (A) (A) (A) (A) (A)
                 (A) (A) (A) (A) (A) (A) (A) (A) (A) (A) (A) (A)
                 (A) (A) (A) (A) (A) (A) (A) (A) (A) (A) (A) (A)
                 (A) (A) (A) (A) (A) (A) (A) (A) (A) (A) (A) (A)
                 (A) (A) (A) (A) (A) (A) (A) (A)
       Virtual   (A) (A) (A) (A) (A) (A) (A) (A) (A) (A) (A) (A)
                 (A) (A) (A) (A) (A) (A) (A) (A) (A) (A) (A) (A)
                 (A) (A) (A) (A) (A) (A) (A) (A) (A) (A) (A) (A)
                 (A) (A) (A) (A) (A) (A) (A) (A) (A) (A) (A) (A)
                 (A) (A) (A) (A) (A) (A) (A) (A) (A) (A) (A) (A)
                 (A) (A) (A) (A) (A) (A) (A) (A) (A) (A) (A) (A)
                 (A) (A) (A) (A) (A) (A) (A) (A) (A) (A) (A) (A)
                 (A) (A) (A) (A) (A) (A) (A) (A) (A) (A) (A) (A)
                 (A) (A) (A) (A) (A) (A) (A) (A) (A) (A) (A) (A)
                 (A) (A) (A) (A) (A) (A) (A) (A) (A) (A) (A) (A)
                 (A) (A) (A) (A) (A) (A) (A) (A) (A) (A) (A) (A)
                 (A) (A) (A) (A) (A) (A) (A) (A) (A) (A) (A) (A)
                 (A) (A) (A) (A) (A) (A) (A) (A) (A) (A) (A) (A)
                 (A) (A) (A) (A) (A) (A) (A) (A) (A) (A) (A) (A)
                 (A) (A) (A) (A) (A) (A) (A) (A) (A) (A) (A) (A)
                 (A) (A) (A) (A) (A) (A) (A) (A) (A) (A) (A) (A)
                 (A) (A) (A) (A) (A) (A) (A) (A) (A) (A) (A) (A)
                 (A) (A) (A) (A) (A) (A) (A) (A) (A) (A) (A) (A)
                 (A) (A) (A) (A) (A) (A) (A) (A) (A) (A) (A) (A)
                 (A) (A) (A) (A) (A) (A) (A) (A) (A) (A) (A) (A)
                 (A) (A) (A) (A) (A) (A) (A) (A) (A) (A) (A) (A)
                 (A) (A) (A) (A) (A) (A) (A) (A) (A) (A) (A) (A)
                 (A) (A) (A) (A) (A) (A) (A) (A) (A) (A) (A) (A)
                 (A) (A) (A) (A) (A) (A) (A) (A) (A) (A) (A) (A)
                 (A) (A) (A) (A) (A) (A) (A) (A) (A) (A) (A) (A)
                 (A) (A) (A) (A) (A) (A) (A) (A) (A) (A) (A) (A)
                 (A) (A) (A) (A) (A) (A) (A) (A) (A) (A) (A) (A)
                 (A) (A) (A) (A) (A) (A) (A) (A) (A) (A) (A) (A)
                 (A) (A) (A) (A) (A) (A) (A) (A) (A) (A) (A) (A)
                 (A) (A) (A) (A) (A) (A) (A) (A) (A) (A) (A) (A)
                 (A) (A) (A) (A) (A) (A) (A) (A) (A) (A) (A) (A)
                 (A) (A) (A) (A) (A) (A) (A) (A) (A) (A) (A) (A)
                 (A) (A) (A) (A) (A) (A) (A) (A) (A) (A) (A) (A)
                 (A) (A) (A) (A) (A) (A) (A) (A) (A) (A) (A) (A)
                 (A) (A) (A) (A) (A) (A) (A) (A) (A) (A) (A) (A)
                 (A) (A) (A) (A) (A) (A) (A) (A) (A) (A) (A) (A)
                 (A) (A) (A) (A) (A) (A) (A) (A) (A) (A) (A) (A)
                 (A) (A) (A) (A) (A) (A) (A) (A) (A) (A) (A) (A)
                 (A) (A) (A) (A) (A) (A) (A) (A) (A) (A) (A) (A)
                 (A) (A) (A) (A) (A) (A) (A) (A) (A) (A) (A) (A)
                 (A) (A) (A) (A) (A) (A) (A) (A) (A) (A) (A) (A)
                 (A) (A) (A) (A) (A) (A) (A) (A) (A) (A) (A) (A)
                 (A) (A) (A) (A) (A) (A) (A) (A) (A) (A) (A) (A)
                 (A) (A) (A) (A) (A) (A) (A) (A) (A) (A) (A) (A)
                 (A) (A) (A) (A) (A) (A) (A) (A) (A) (A) (A) (A)
                 (A) (A) (A) (A) (A) (A) (A) (A) (A) (A) (A) (A)
                 (A) (A) (A) (A) (A) (A) (A) (A) (A) (A) (A) (A)
                 (A) (A) (A) (A) (A) (A) (A) (A) (A) (A) (A) (A)
                 (A) (A) (A) (A) (A) (A) (A) (A) (A) (A) (A) (A)
                 (A) (A) (A) (A) (A) (A) (A) (A) (A) (A) (A) (A)
                 (A) (A) (A) (A) (A) (A) (A) (A) (A) (A) (A) (A)
                 (A) (A) (A) (A) (A) (A) (A) (A) (A) (A) (A) (A)
                 (A) (A) (A) (A) (A) (A) (A) (A) (A) (A) (A) (A)
                 (A) (A) (A) (A) (A) (A) (A) (A) (A) (A) (A) (A)
                 (A) (A) (A) (A) (A) (A) (A) (A) (A) (A) (A) (A)
                 (A) (A) (A) (A) (A) (A) (A) (A) (A) (A) (A) (A)
                 (A) (A) (A) (A) (A) (A) (A) (A) (A) (A) (A) (A)
                 (A) (A) (A) (A) (A) (A) (A) (A) (A) (A) (A) (A)
                 (A) (A) (A) (A) (A) (A) (A) (A) (A) (A) (A) (A)
                 (A) (A) (A) (A) (A) (A) (A) (A) (A) (A) (A) (A)
                 (A) (A) (A) (A) (A) (A) (A) (A) (A) (A) (A) (A)
                 (A) (A) (A) (A) (A) (A) (A) (A) (A) (A) (A) (A)
                 (A) (A) (A) (A) (A) (A) (A) (A) (A) (A) (A) (A)
                 (A) (A) (A) (A) (A) (A) (A) (A) (A) (A) (A) (A)
                 (A) (A) (A) (A) (A) (A) (A) (A) (A) (A) (A) (A)
                 (A) (A) (A) (A) (A) (A) (A) (A) (A) (A) (A) (A)
                 (A) (A) (A) (A) (A) (A) (A) (A) (A) (A) (A) (A)
                 (A) (A) (A) (A) (A) (A) (A) (A) (A) (A) (A) (A)
                 (A) (A) (A) (A) (A) (A) (A) (A) (A) (A) (A) (A)
                 (A) (A) (A) (A) (A) (A) (A) (A) (A) (A) (A) (A)
                 (A) (A) (A) (A) (A) (A) (A) (A) (A) (A) (A) (A)
                 (A) (A) (A) (A) (A) (A) (A) (A) (A) (A) (A) (A)
                 (A) (A) (A) (A) (A) (A) (A) (A) (A) (A) (A) (A)
                 (A) (A) (A) (A) (A) (A) (A) (A) (A) (A) (A) (A)
                 (A) (A) (A) (A) (A) (A) (A) (A) (A) (A) (A) (A)
                 (A) (A) (A) (A) (A) (A) (A) (A) (A) (A) (A) (A)
                 (A) (A) (A) (A) (A) (A) (A) (A) (A) (A) (A) (A)
                 (A) (A) (A) (A) (A) (A) (A) (A) (A) (A) (A) (A)
                 (A) (A) (A) (A) (A) (A) (A) (A) (A) (A) (A) (A)
                 (A) (A) (A) (A) (A) (A) (A) (A) (A) (A) (A) (A)
                 (A) (A) (A) (A) (A) (A) (A) (A) (A) (A) (A) (A)
                 (A) (A) (A) (A) (A) (A) (A) (A) (A) (A) (A) (A)
                 (A) (A) (A) (A) (A) (A) (A) (A) (A) (A) (A) (A)
                 (A) (A) (A) (A) (A) (A) (A) (A) (A) (A) (A) (A)
                 (A) (A) (A) (A) (A) (A) (A) (A) (A) (A) (A) (A)
                 (A) (A) (A) (A) (A) (A) (A) (A) (A) (A) (A) (A)
                 (A) (A) (A) (A) (A) (A) (A) (A) (A) (A) (A) (A)
                 (A) (A) (A) (A) (A) (A) (A) (A) (A) (A) (A) (A)
                 (A) (A) (A) (A) (A) (A) (A) (A) (A) (A) (A) (A)
                 (A) (A) (A) (A) (A) (A) (A) (A) (A) (A) (A) (A)
                 (A) (A) (A) (A) (A) (A) (A) (A) (A) (A) (A) (A)
                 (A) (A) (A) (A) (A) (A) (A) (A) (A) (A) (A) (A)
                 (A) (A) (A) (A) (A) (A) (A) (A) (A) (A) (A) (A)
                 (A) (A) (A) (A) (A) (A) (A) (A) (A) (A) (A) (A)
                 (A) (A) (A) (A) (A) (A) (A) (A) (A) (A) (A) (A)
                 (A) (A) (A) (A) (A) (A) (A) (A) (A) (A) (A) (A)
                 (A) (A) (A) (A) (A) (A) (A) (A) (A) (A) (A) (A)
                 (A) (A) (A) (A) (A) (A) (A) (A) (A) (A) (A) (A)
                 (A) (A) (A) (A) (A) (A) (A) (A) (A) (A) (A) (A)
                 (A) (A) (A) (A) (A) (A) (A) (A) (A) (A) (A) (A)
                 (A) (A) (A) (A) (A) (A) (A) (A) (A) (A) (A) (A)
                 (A) (A) (A) (A) (A) (A) (A) (A) (A) (A) (A) (A)
                 (A) (A) (A) (A) (A) (A) (A) (A) (A) (A) (A) (A)
                 (A) (A) (A) (A) (A) (A) (A) (A) (A) (A) (A) (A)
                 (A) (A) (A) (A) (A) (A) (A) (A) (A) (A) (A) (A)
                 (A) (A) (A) (A) (A) (A) (A) (A) (A) (A) (A) (A)
                 (A) (A) (A) (A) (A) (A) (A) (A) (A) (A) (A) (A)
                 (A) (A) (A) (A) (A) (A) (A) (A) (A) (A) (A) (A)
                 (A) (A) (A) (A) (A) (A) (A) (A) (A) (A) (A) (A)
                 (A) (A) (A) (A) (A) (A) (A) (A) (A) (A) (A) (A)
                 (A) (A) (A) (A) (A) (A) (A) (A) (A) (A) (A) (A)
                 (A) (A) (A) (A) (A) (A) (A) (A) (A) (A) (A) (A)
                 (A) (A) (A) (A) (A) (A) (A) (A) (A) (A) (A) (A)
                 (A) (A) (A) (A) (A) (A) (A) (A) (A) (A) (A) (A)
                 (A) (A) (A) (A) (A) (A) (A) (A) (A) (A) (A) (A)
                 (A) (A) (A) (A) (A) (A) (A) (A) (A) (A) (A) (A)
                 (A) (A) (A) (A) (A) (A) (A) (A) (A) (A) (A) (A)
                 (A) (A) (A) (A) (A) (A) (A) (A) (A) (A) (A) (A)
                 (A) (A) (A) (A) (A) (A) (A) (A) (A) (A) (A) (A)
                 (A) (A) (A) (A) (A) (A) (A) (A) (A) (A) (A) (A)
                 (A) (A) (A) (A) (A) (A) (A) (A) (A) (A) (A) (A)
                 (A) (A) (A) (A) (A) (A) (A) (A) (A) (A) (A) (A)
                 (A) (A) (A) (A) (A) (A) (A) (A) (A) (A) (A) (A)
                 (A) (A) (A) (A) (A) (A) (A) (A) (A) (A) (A) (A)
                 (A) (A) (A) (A) (A) (A) (A) (A) (A) (A) (A) (A)
                 (A) (A) (A) (A) (A) (A) (A) (A) (A) (A) (A) (A)
                 (A) (A) (A) (A) (A) (A) (A) (A) (A) (A) (A) (A)
                 (A) (A) (A) (A) (A) (A) (A) (A) (A) (A) (A) (A)
                 (A) (A) (A) (A) (A) (A) (A) (A) (A) (A) (A) (A)
                 (A) (A) (A)
 Beta  Orbitals:
       Occupied  (A) (A) (A) (A) (A) (A) (A) (A) (A) (A) (A) (A)
                 (A) (A) (A) (A) (A) (A) (A) (A) (A) (A) (A) (A)
                 (A) (A) (A) (A) (A) (A) (A) (A) (A) (A) (A) (A)
                 (A) (A) (A) (A) (A) (A) (A) (A) (A) (A) (A) (A)
                 (A) (A) (A) (A) (A) (A) (A) (A) (A) (A) (A) (A)
                 (A) (A) (A) (A) (A) (A) (A) (A) (A) (A) (A) (A)
                 (A) (A) (A) (A) (A) (A) (A) (A) (A) (A) (A) (A)
                 (A) (A) (A) (A) (A) (A) (A) (A) (A) (A) (A) (A)
                 (A) (A) (A) (A) (A) (A) (A) (A) (A) (A) (A) (A)
                 (A) (A) (A) (A) (A) (A) (A) (A) (A) (A) (A) (A)
                 (A) (A) (A) (A) (A) (A) (A) (A) (A) (A) (A) (A)
                 (A) (A) (A) (A) (A) (A) (A) (A) (A) (A) (A) (A)
                 (A) (A) (A) (A) (A) (A) (A) (A) (A) (A) (A) (A)
                 (A) (A) (A) (A) (A) (A) (A)
       Virtual   (A) (A) (A) (A) (A) (A) (A) (A) (A) (A) (A) (A)
                 (A) (A) (A) (A) (A) (A) (A) (A) (A) (A) (A) (A)
                 (A) (A) (A) (A) (A) (A) (A) (A) (A) (A) (A) (A)
                 (A) (A) (A) (A) (A) (A) (A) (A) (A) (A) (A) (A)
                 (A) (A) (A) (A) (A) (A) (A) (A) (A) (A) (A) (A)
                 (A) (A) (A) (A) (A) (A) (A) (A) (A) (A) (A) (A)
                 (A) (A) (A) (A) (A) (A) (A) (A) (A) (A) (A) (A)
                 (A) (A) (A) (A) (A) (A) (A) (A) (A) (A) (A) (A)
                 (A) (A) (A) (A) (A) (A) (A) (A) (A) (A) (A) (A)
                 (A) (A) (A) (A) (A) (A) (A) (A) (A) (A) (A) (A)
                 (A) (A) (A) (A) (A) (A) (A) (A) (A) (A) (A) (A)
                 (A) (A) (A) (A) (A) (A) (A) (A) (A) (A) (A) (A)
                 (A) (A) (A) (A) (A) (A) (A) (A) (A) (A) (A) (A)
                 (A) (A) (A) (A) (A) (A) (A) (A) (A) (A) (A) (A)
                 (A) (A) (A) (A) (A) (A) (A) (A) (A) (A) (A) (A)
                 (A) (A) (A) (A) (A) (A) (A) (A) (A) (A) (A) (A)
                 (A) (A) (A) (A) (A) (A) (A) (A) (A) (A) (A) (A)
                 (A) (A) (A) (A) (A) (A) (A) (A) (A) (A) (A) (A)
                 (A) (A) (A) (A) (A) (A) (A) (A) (A) (A) (A) (A)
                 (A) (A) (A) (A) (A) (A) (A) (A) (A) (A) (A) (A)
                 (A) (A) (A) (A) (A) (A) (A) (A) (A) (A) (A) (A)
                 (A) (A) (A) (A) (A) (A) (A) (A) (A) (A) (A) (A)
                 (A) (A) (A) (A) (A) (A) (A) (A) (A) (A) (A) (A)
                 (A) (A) (A) (A) (A) (A) (A) (A) (A) (A) (A) (A)
                 (A) (A) (A) (A) (A) (A) (A) (A) (A) (A) (A) (A)
                 (A) (A) (A) (A) (A) (A) (A) (A) (A) (A) (A) (A)
                 (A) (A) (A) (A) (A) (A) (A) (A) (A) (A) (A) (A)
                 (A) (A) (A) (A) (A) (A) (A) (A) (A) (A) (A) (A)
                 (A) (A) (A) (A) (A) (A) (A) (A) (A) (A) (A) (A)
                 (A) (A) (A) (A) (A) (A) (A) (A) (A) (A) (A) (A)
                 (A) (A) (A) (A) (A) (A) (A) (A) (A) (A) (A) (A)
                 (A) (A) (A) (A) (A) (A) (A) (A) (A) (A) (A) (A)
                 (A) (A) (A) (A) (A) (A) (A) (A) (A) (A) (A) (A)
                 (A) (A) (A) (A) (A) (A) (A) (A) (A) (A) (A) (A)
                 (A) (A) (A) (A) (A) (A) (A) (A) (A) (A) (A) (A)
                 (A) (A) (A) (A) (A) (A) (A) (A) (A) (A) (A) (A)
                 (A) (A) (A) (A) (A) (A) (A) (A) (A) (A) (A) (A)
                 (A) (A) (A) (A) (A) (A) (A) (A) (A) (A) (A) (A)
                 (A) (A) (A) (A) (A) (A) (A) (A) (A) (A) (A) (A)
                 (A) (A) (A) (A) (A) (A) (A) (A) (A) (A) (A) (A)
                 (A) (A) (A) (A) (A) (A) (A) (A) (A) (A) (A) (A)
                 (A) (A) (A) (A) (A) (A) (A) (A) (A) (A) (A) (A)
                 (A) (A) (A) (A) (A) (A) (A) (A) (A) (A) (A) (A)
                 (A) (A) (A) (A) (A) (A) (A) (A) (A) (A) (A) (A)
                 (A) (A) (A) (A) (A) (A) (A) (A) (A) (A) (A) (A)
                 (A) (A) (A) (A) (A) (A) (A) (A) (A) (A) (A) (A)
                 (A) (A) (A) (A) (A) (A) (A) (A) (A) (A) (A) (A)
                 (A) (A) (A) (A) (A) (A) (A) (A) (A) (A) (A) (A)
                 (A) (A) (A) (A) (A) (A) (A) (A) (A) (A) (A) (A)
                 (A) (A) (A) (A) (A) (A) (A) (A) (A) (A) (A) (A)
                 (A) (A) (A) (A) (A) (A) (A) (A) (A) (A) (A) (A)
                 (A) (A) (A) (A) (A) (A) (A) (A) (A) (A) (A) (A)
                 (A) (A) (A) (A) (A) (A) (A) (A) (A) (A) (A) (A)
                 (A) (A) (A) (A) (A) (A) (A) (A) (A) (A) (A) (A)
                 (A) (A) (A) (A) (A) (A) (A) (A) (A) (A) (A) (A)
                 (A) (A) (A) (A) (A) (A) (A) (A) (A) (A) (A) (A)
                 (A) (A) (A) (A) (A) (A) (A) (A) (A) (A) (A) (A)
                 (A) (A) (A) (A) (A) (A) (A) (A) (A) (A) (A) (A)
                 (A) (A) (A) (A) (A) (A) (A) (A) (A) (A) (A) (A)
                 (A) (A) (A) (A) (A) (A) (A) (A) (A) (A) (A) (A)
                 (A) (A) (A) (A) (A) (A) (A) (A) (A) (A) (A) (A)
                 (A) (A) (A) (A) (A) (A) (A) (A) (A) (A) (A) (A)
                 (A) (A) (A) (A) (A) (A) (A) (A) (A) (A) (A) (A)
                 (A) (A) (A) (A) (A) (A) (A) (A) (A) (A) (A) (A)
                 (A) (A) (A) (A) (A) (A) (A) (A) (A) (A) (A) (A)
                 (A) (A) (A) (A) (A) (A) (A) (A) (A) (A) (A) (A)
                 (A) (A) (A) (A) (A) (A) (A) (A) (A) (A) (A) (A)
                 (A) (A) (A) (A) (A) (A) (A) (A) (A) (A) (A) (A)
                 (A) (A) (A) (A) (A) (A) (A) (A) (A) (A) (A) (A)
                 (A) (A) (A) (A) (A) (A) (A) (A) (A) (A) (A) (A)
                 (A) (A) (A) (A) (A) (A) (A) (A) (A) (A) (A) (A)
                 (A) (A) (A) (A) (A) (A) (A) (A) (A) (A) (A) (A)
                 (A) (A) (A) (A) (A) (A) (A) (A) (A) (A) (A) (A)
                 (A) (A) (A) (A) (A) (A) (A) (A) (A) (A) (A) (A)
                 (A) (A) (A) (A) (A) (A) (A) (A) (A) (A) (A) (A)
                 (A) (A) (A) (A) (A) (A) (A) (A) (A) (A) (A) (A)
                 (A) (A) (A) (A) (A) (A) (A) (A) (A) (A) (A) (A)
                 (A) (A) (A) (A) (A) (A) (A) (A) (A) (A) (A) (A)
                 (A) (A) (A) (A) (A) (A) (A) (A) (A) (A) (A) (A)
                 (A) (A) (A) (A) (A) (A) (A) (A) (A) (A) (A) (A)
                 (A) (A) (A) (A) (A) (A) (A) (A) (A) (A) (A) (A)
                 (A) (A) (A) (A) (A) (A) (A) (A) (A) (A) (A) (A)
                 (A) (A) (A) (A) (A) (A) (A) (A) (A) (A) (A) (A)
                 (A) (A) (A) (A) (A) (A) (A) (A) (A) (A) (A) (A)
                 (A) (A) (A) (A) (A) (A) (A) (A) (A) (A) (A) (A)
                 (A) (A) (A) (A) (A) (A) (A) (A) (A) (A) (A) (A)
                 (A) (A) (A) (A) (A) (A) (A) (A) (A) (A) (A) (A)
                 (A) (A) (A) (A) (A) (A) (A) (A) (A) (A) (A) (A)
                 (A) (A) (A) (A) (A) (A) (A) (A) (A) (A) (A) (A)
                 (A) (A) (A) (A) (A) (A) (A) (A) (A) (A) (A) (A)
                 (A) (A) (A) (A) (A) (A) (A) (A) (A) (A) (A) (A)
                 (A) (A) (A) (A) (A) (A) (A) (A) (A) (A) (A) (A)
                 (A) (A) (A) (A) (A) (A) (A) (A) (A) (A) (A) (A)
                 (A) (A) (A) (A) (A) (A) (A) (A) (A) (A) (A) (A)
                 (A) (A) (A) (A) (A) (A) (A) (A) (A) (A) (A) (A)
                 (A) (A) (A) (A) (A) (A) (A) (A) (A) (A) (A) (A)
                 (A) (A) (A) (A) (A) (A) (A) (A) (A) (A) (A) (A)
                 (A) (A) (A) (A) (A) (A) (A) (A) (A) (A) (A) (A)
                 (A) (A) (A) (A) (A) (A) (A) (A) (A) (A) (A) (A)
                 (A) (A) (A) (A) (A) (A) (A) (A) (A) (A) (A) (A)
                 (A) (A) (A) (A) (A) (A) (A) (A) (A) (A) (A) (A)
                 (A) (A) (A) (A) (A) (A) (A) (A) (A) (A) (A) (A)
                 (A) (A) (A) (A) (A) (A) (A) (A) (A) (A) (A) (A)
                 (A) (A) (A) (A) (A) (A) (A) (A) (A) (A) (A) (A)
                 (A) (A) (A) (A) (A) (A) (A) (A) (A) (A) (A) (A)
                 (A) (A) (A) (A) (A) (A) (A) (A) (A) (A) (A) (A)
                 (A) (A) (A) (A) (A) (A) (A) (A) (A) (A) (A) (A)
                 (A) (A) (A) (A) (A) (A) (A) (A) (A) (A) (A) (A)
                 (A) (A) (A) (A) (A) (A) (A) (A) (A) (A) (A) (A)
                 (A) (A) (A) (A) (A) (A) (A) (A) (A) (A) (A) (A)
                 (A) (A) (A) (A) (A) (A) (A) (A) (A) (A) (A) (A)
                 (A) (A) (A) (A) (A) (A) (A) (A) (A) (A) (A) (A)
                 (A) (A) (A) (A) (A) (A) (A) (A) (A) (A) (A) (A)
                 (A) (A) (A) (A) (A) (A) (A) (A) (A) (A) (A) (A)
                 (A) (A) (A) (A) (A) (A) (A) (A) (A) (A) (A) (A)
                 (A) (A) (A) (A) (A) (A) (A) (A) (A) (A) (A) (A)
                 (A) (A) (A) (A) (A) (A) (A) (A) (A) (A) (A) (A)
                 (A) (A) (A) (A) (A) (A) (A) (A) (A) (A) (A) (A)
                 (A) (A) (A) (A) (A) (A) (A) (A) (A) (A) (A) (A)
                 (A) (A) (A) (A) (A) (A) (A) (A) (A) (A) (A) (A)
                 (A) (A) (A) (A) (A) (A) (A) (A) (A) (A) (A) (A)
                 (A) (A) (A) (A) (A) (A) (A) (A) (A) (A) (A) (A)
                 (A) (A) (A) (A) (A) (A) (A) (A) (A) (A) (A) (A)
                 (A) (A) (A) (A) (A) (A) (A) (A) (A) (A) (A) (A)
                 (A) (A) (A) (A) (A) (A) (A) (A) (A) (A) (A) (A)
                 (A) (A) (A) (A) (A) (A) (A) (A) (A) (A) (A) (A)
                 (A) (A) (A) (A) (A) (A) (A) (A) (A) (A) (A) (A)
                 (A) (A) (A) (A) (A) (A) (A) (A) (A) (A) (A) (A)
                 (A) (A) (A) (A) (A) (A) (A) (A) (A) (A) (A) (A)
                 (A) (A) (A) (A)
 The electronic state is 2-A.
 Alpha  occ. eigenvalues --  -25.19624 -25.19587 -19.64381 -19.64377 -14.97394
 Alpha  occ. eigenvalues --  -14.76980 -14.76874 -14.76849 -10.59740 -10.59280
 Alpha  occ. eigenvalues --  -10.59009 -10.58544 -10.58079 -10.57804 -10.57710
 Alpha  occ. eigenvalues --  -10.57564 -10.57254 -10.57145 -10.57139 -10.57100
 Alpha  occ. eigenvalues --  -10.56311 -10.56299 -10.55918 -10.55720 -10.55715
 Alpha  occ. eigenvalues --  -10.55574 -10.55005 -10.54684 -10.54626 -10.54424
 Alpha  occ. eigenvalues --  -10.54402 -10.54053 -10.53853 -10.53637 -10.53477
 Alpha  occ. eigenvalues --  -10.53393 -10.52742 -10.52741  -7.12083  -7.10678
 Alpha  occ. eigenvalues --   -7.10523  -5.10014  -5.09846  -5.08999  -5.08972
 Alpha  occ. eigenvalues --   -5.08842  -5.08833  -2.06869  -2.06704  -2.06424
 Alpha  occ. eigenvalues --   -2.06407  -2.06259  -2.06249  -2.05566  -2.05565
 Alpha  occ. eigenvalues --   -2.05421  -2.05420  -1.31451  -1.31344  -1.28222
 Alpha  occ. eigenvalues --   -1.13297  -1.09292  -1.07459  -1.05957  -0.99125
 Alpha  occ. eigenvalues --   -0.95789  -0.93846  -0.90946  -0.90319  -0.89715
 Alpha  occ. eigenvalues --   -0.88636  -0.86926  -0.86300  -0.85957  -0.84503
 Alpha  occ. eigenvalues --   -0.84093  -0.82286  -0.80749  -0.80542  -0.78692
 Alpha  occ. eigenvalues --   -0.78493  -0.77512  -0.76259  -0.73359  -0.72509
 Alpha  occ. eigenvalues --   -0.70761  -0.70548  -0.68854  -0.67670  -0.66482
 Alpha  occ. eigenvalues --   -0.65755  -0.64543  -0.63982  -0.63717  -0.62940
 Alpha  occ. eigenvalues --   -0.60748  -0.59950  -0.59785  -0.59150  -0.58880
 Alpha  occ. eigenvalues --   -0.57606  -0.57321  -0.57044  -0.55709  -0.55267
 Alpha  occ. eigenvalues --   -0.54017  -0.53429  -0.53136  -0.52646  -0.52193
 Alpha  occ. eigenvalues --   -0.51989  -0.51405  -0.51237  -0.50645  -0.50363
 Alpha  occ. eigenvalues --   -0.50219  -0.49748  -0.49290  -0.48812  -0.48607
 Alpha  occ. eigenvalues --   -0.48213  -0.47766  -0.47674  -0.47500  -0.46772
 Alpha  occ. eigenvalues --   -0.46334  -0.46123  -0.45962  -0.45549  -0.45284
 Alpha  occ. eigenvalues --   -0.44996  -0.44538  -0.44497  -0.44046  -0.43491
 Alpha  occ. eigenvalues --   -0.43100  -0.42894  -0.42608  -0.41899  -0.41671
 Alpha  occ. eigenvalues --   -0.41644  -0.41213  -0.40218  -0.39999  -0.39759
 Alpha  occ. eigenvalues --   -0.38947  -0.38907  -0.38383  -0.38041  -0.37194
 Alpha  occ. eigenvalues --   -0.36447  -0.35420  -0.34749  -0.33117  -0.32983
 Alpha  occ. eigenvalues --   -0.32188  -0.31855  -0.31351  -0.30642  -0.29055
 Alpha  occ. eigenvalues --   -0.28661  -0.26351  -0.22849  -0.17779
[...]
     5 C(13)  Bbb    -0.0002    -0.033    -0.012    -0.011  0.8509  0.5253  0.0068
              Bcc     0.0008     0.102     0.036     0.034 -0.0254  0.0283  0.9993
 
              Baa    -0.0080    -1.080    -0.385    -0.360 -0.2591  0.8257  0.5011
     6 C(13)  Bbb    -0.0073    -0.981    -0.350    -0.327  0.9506  0.3098 -0.0189
              Bcc     0.0154     2.060     0.735     0.687  0.1708 -0.4714  0.8652
 
              Baa    -0.0052    -0.702    -0.251    -0.234  0.1896 -0.4746  0.8595
     7 C(13)  Bbb     0.0022     0.289     0.103     0.096 -0.0276  0.8725  0.4878
              Bcc     0.0031     0.414     0.148     0.138  0.9815  0.1162 -0.1523
 
              Baa    -0.0078    -1.042    -0.372    -0.347 -0.2501  0.8341  0.4916
     8 C(13)  Bbb    -0.0074    -0.990    -0.353    -0.330  0.9596  0.2810  0.0115
              Bcc     0.0151     2.031     0.725     0.678  0.1286 -0.4746  0.8707
 
              Baa    -0.0124    -1.664    -0.594    -0.555  0.1380 -0.4817  0.8654
     9 C(13)  Bbb     0.0051     0.684     0.244     0.228 -0.4248  0.7605  0.4911
              Bcc     0.0073     0.980     0.350     0.327  0.8947  0.4354  0.0997
 
              Baa    -0.0371    -4.984    -1.778    -1.662 -0.5150  0.7089  0.4819
    10 C(13)  Bbb    -0.0357    -4.796    -1.711    -1.600  0.8291  0.5547  0.0701
              Bcc     0.0729     9.780     3.490     3.262  0.2176 -0.4356  0.8734
 
              Baa    -0.0381    -5.117    -1.826    -1.707  0.1339 -0.3731  0.9181
    11 C(13)  Bbb     0.0158     2.115     0.755     0.705  0.0173  0.9272  0.3743
              Bcc     0.0224     3.002     1.071     1.001  0.9908  0.0342 -0.1306
 
              Baa    -0.0647    -8.684    -3.099    -2.897 -0.6440  0.7650  0.0027
    12 C(13)  Bbb    -0.0633    -8.500    -3.033    -2.835  0.7638  0.6428  0.0581
              Bcc     0.1281    17.184     6.132     5.732 -0.0427 -0.0394  0.9983
 
              Baa    -0.0180    -0.695    -0.248    -0.232  0.8661 -0.4392  0.2388
    13 N(14)  Bbb    -0.0145    -0.559    -0.200    -0.187  0.3459  0.8714  0.3480
              Bcc     0.0325     1.254     0.448     0.418 -0.3609 -0.2188  0.9066
 
              Baa    -0.0499    -6.698    -2.390    -2.234 -0.0517 -0.0388  0.9979
    14 C(13)  Bbb     0.0198     2.659     0.949     0.887  0.3846  0.9214  0.0558
              Bcc     0.0301     4.040     1.441     1.347  0.9216 -0.3867  0.0327
 
              Baa    -0.1471   -19.738    -7.043    -6.584 -0.6103  0.7913  0.0372
    15 C(13)  Bbb    -0.1397   -18.747    -6.689    -6.253  0.7887  0.6113 -0.0646
              Bcc     0.2868    38.485    13.732    12.837  0.0738  0.0101  0.9972
 
              Baa    -0.0276    -3.699    -1.320    -1.234  0.1951 -0.1312  0.9720
    16 C(13)  Bbb    -0.0098    -1.316    -0.469    -0.439  0.7981  0.5973 -0.0796
              Bcc     0.0374     5.014     1.789     1.673 -0.5701  0.7912  0.2212
 
              Baa    -0.0187    -2.505    -0.894    -0.836  0.3899 -0.0908  0.9164
    17 C(13)  Bbb    -0.0105    -1.408    -0.502    -0.470  0.8746  0.3479 -0.3377
              Bcc     0.0292     3.913     1.396     1.305 -0.2881  0.9331  0.2150
 
              Baa    -0.0137    -1.833    -0.654    -0.612  0.2049 -0.6602  0.7226
    18 C(13)  Bbb    -0.0077    -1.035    -0.369    -0.345  0.6483  0.6447  0.4052
              Bcc     0.0214     2.869     1.024     0.957  0.7333 -0.3854 -0.5601
 
              Baa    -0.0448    -6.018    -2.148    -2.008  0.3718 -0.4078  0.8340
    19 C(13)  Bbb    -0.0292    -3.922    -1.399    -1.308  0.8047  0.5896 -0.0705
              Bcc     0.0741     9.940     3.547     3.316 -0.4629  0.6972  0.5473
 
              Baa    -0.0944    -3.642    -1.300    -1.215  0.3674 -0.4009  0.8392
    20 N(14)  Bbb    -0.0869    -3.352    -1.196    -1.118  0.8030  0.5921 -0.0686
              Bcc     0.1813     6.994     2.496     2.333 -0.4694  0.6991  0.5394
 
              Baa    -0.2041    14.770     5.270     4.927  0.7370 -0.0205  0.6755
    21 O(17)  Bbb    -0.1908    13.808     4.927     4.606  0.4964  0.6947 -0.5205
              Bcc     0.3950   -28.578   -10.198    -9.533 -0.4586  0.7190  0.5222
 
              Baa    -0.2054    14.866     5.305     4.959 -0.1233 -0.6544  0.7460
    22 O(17)  Bbb    -0.1921    13.900     4.960     4.636  0.8605  0.3039  0.4088
              Bcc     0.3975   -28.766   -10.264    -9.595 -0.4943  0.6924  0.5257
 
              Baa    -0.0143    -1.918    -0.684    -0.640  0.6243 -0.3397  0.7035
    23 C(13)  Bbb    -0.0081    -1.084    -0.387    -0.362  0.7728  0.4006 -0.4923
              Bcc     0.0224     3.002     1.071     1.001 -0.1145  0.8510  0.5126
 
              Baa    -0.0186    -2.490    -0.888    -0.830  0.0702 -0.3148  0.9466
    24 C(13)  Bbb    -0.0101    -1.361    -0.486    -0.454  0.6209  0.7565  0.2055
              Bcc     0.0287     3.850     1.374     1.284  0.7808 -0.5732 -0.2485
 
              Baa    -0.0388    -5.206    -1.857    -1.736  0.1611  0.1551  0.9747
    25 C(13)  Bbb     0.0146     1.959     0.699     0.653  0.9714  0.1493 -0.1844
              Bcc     0.0242     3.247     1.159     1.083 -0.1741  0.9765 -0.1266
 
              Baa    -0.0633    -8.500    -3.033    -2.835  0.8166  0.5314 -0.2251
    26 C(13)  Bbb    -0.0614    -8.241    -2.940    -2.749 -0.5249  0.8460  0.0932
              Bcc     0.1248    16.741     5.974     5.584  0.2400  0.0420  0.9699
 
              Baa    -0.0025    -0.339    -0.121    -0.113  0.1480 -0.4835  0.8628
    27 C(13)  Bbb     0.0002     0.033     0.012     0.011  0.3851  0.8317  0.4000
              Bcc     0.0023     0.306     0.109     0.102  0.9109 -0.2730 -0.3093
 
              Baa    -0.0075    -1.010    -0.360    -0.337  0.2125  0.1715  0.9620
    28 C(13)  Bbb     0.0031     0.413     0.147     0.138  0.7540  0.5974 -0.2730
              Bcc     0.0044     0.596     0.213     0.199 -0.6216  0.7834 -0.0024
 
              Baa    -0.0007    -0.080    -0.028    -0.027  0.6895  0.4271  0.5849
    29 I(127) Bbb    -0.0005    -0.056    -0.020    -0.019 -0.4726 -0.3466  0.8103
              Bcc     0.0013     0.135     0.048     0.045 -0.5488  0.8351  0.0372
 
              Baa    -0.0580    -7.784    -2.778    -2.597 -0.4152  0.9093 -0.0275
    30 C(13)  Bbb    -0.0549    -7.369    -2.629    -2.458  0.8963  0.4037 -0.1837
              Bcc     0.1129    15.153     5.407     5.054  0.1560  0.1009  0.9826
 
              Baa    -0.0018    -0.248    -0.089    -0.083  0.7151 -0.6901 -0.1116
    31 C(13)  Bbb     0.0003     0.047     0.017     0.016 -0.1879 -0.3435  0.9201
              Bcc     0.0015     0.201     0.072     0.067  0.6733  0.6370  0.3753
 
              Baa    -0.0184    -0.710    -0.253    -0.237 -0.1040  0.9271 -0.3601
    32 N(14)  Bbb    -0.0146    -0.565    -0.202    -0.188  0.9059 -0.0611 -0.4190
              Bcc     0.0331     1.275     0.455     0.425  0.4104  0.3698  0.8335
 
              Baa    -0.0023    -0.385    -0.138    -0.129  0.1519 -0.1370  0.9789
    33 B(11)  Bbb     0.0008     0.134     0.048     0.045  0.9289  0.3583 -0.0940
              Bcc     0.0015     0.252     0.090     0.084 -0.3379  0.9235  0.1817
 
              Baa    -0.0035    -1.751    -0.625    -0.584  0.0430 -0.3597  0.9321
    34 F(19)  Bbb    -0.0021    -1.069    -0.382    -0.357 -0.6040  0.7338  0.3111
              Bcc     0.0056     2.821     1.007     0.941  0.7958  0.5764  0.1857
 
              Baa    -0.0051    -2.555    -0.912    -0.852  0.5981 -0.5355  0.5962
    35 F(19)  Bbb    -0.0028    -1.425    -0.508    -0.475 -0.0521  0.7164  0.6957
              Bcc     0.0079     3.980     1.420     1.328  0.7997  0.4472 -0.4006
 
              Baa    -0.0638    -8.567    -3.057    -2.858  0.7761  0.6263  0.0739
    36 C(13)  Bbb    -0.0622    -8.348    -2.979    -2.785 -0.6306  0.7709  0.0896
              Bcc     0.1261    16.915     6.036     5.642 -0.0009 -0.1161  0.9932
 
              Baa    -0.0025    -0.338    -0.121    -0.113  0.5579 -0.1853  0.8090
    37 C(13)  Bbb     0.0003     0.040     0.014     0.013  0.8297  0.1037 -0.5484
              Bcc     0.0022     0.298     0.106     0.099  0.0177  0.9772  0.2116
 
              Baa    -0.0235    -3.159    -1.127    -1.054 -0.0370  0.0197  0.9991
    38 C(13)  Bbb     0.0114     1.535     0.548     0.512  0.8421  0.5389  0.0206
              Bcc     0.0121     1.624     0.579     0.542 -0.5380  0.8422 -0.0365
 
              Baa    -0.0015    -0.160    -0.057    -0.053  0.0258 -0.0199  0.9995
    39 I(127) Bbb    -0.0000    -0.001    -0.000    -0.000  0.7947  0.6069 -0.0085
              Bcc     0.0015     0.161     0.057     0.054 -0.6064  0.7945  0.0315
 
              Baa    -0.0082    -1.105    -0.394    -0.368  0.0070  0.8885  0.4588
    40 C(13)  Bbb    -0.0076    -1.017    -0.363    -0.339  0.9864  0.0691 -0.1490
              Bcc     0.0158     2.122     0.757     0.708  0.1641 -0.4536  0.8760
 
              Baa    -0.0064    -0.858    -0.306    -0.286  0.1570 -0.4471  0.8806
    41 C(13)  Bbb     0.0029     0.383     0.137     0.128 -0.5599  0.6942  0.4523
              Bcc     0.0035     0.475     0.169     0.158  0.8136  0.5640  0.1413
 
              Baa    -0.0002    -0.128    -0.046    -0.043 -0.0316  0.2586  0.9655
    42 H(1)   Bbb    -0.0000    -0.016    -0.006    -0.005  0.3868  0.8939 -0.2267
              Bcc     0.0003     0.144     0.051     0.048  0.9216 -0.3663  0.1283
 
              Baa    -0.0001    -0.068    -0.024    -0.023  0.1746  0.2327  0.9568
    43 H(1)   Bbb    -0.0001    -0.050    -0.018    -0.017  0.2904  0.9163 -0.2758
              Bcc     0.0002     0.118     0.042     0.039  0.9408 -0.3260 -0.0924
 
              Baa    -0.0001    -0.071    -0.025    -0.024  0.0476  0.9636  0.2632
    44 H(1)   Bbb    -0.0001    -0.063    -0.023    -0.021 -0.4512 -0.2143  0.8663
              Bcc     0.0003     0.135     0.048     0.045  0.8911 -0.1600  0.4246
 
              Baa    -0.0002    -0.129    -0.046    -0.043 -0.0104  0.9973  0.0721
    45 H(1)   Bbb    -0.0002    -0.109    -0.039    -0.036  0.2363 -0.0676  0.9693
              Bcc     0.0004     0.238     0.085     0.079  0.9716  0.0271 -0.2350
 
              Baa    -0.0003    -0.140    -0.050    -0.047  0.2552 -0.5675  0.7828
    46 H(1)   Bbb    -0.0001    -0.062    -0.022    -0.021  0.5370  0.7564  0.3733
              Bcc     0.0004     0.201     0.072     0.067  0.8041 -0.3251 -0.4978
 
              Baa    -0.0002    -0.124    -0.044    -0.041 -0.2659  0.0042  0.9640
    47 H(1)   Bbb    -0.0002    -0.099    -0.035    -0.033 -0.6829  0.7050 -0.1915
              Bcc     0.0004     0.222     0.079     0.074  0.6804  0.7092  0.1846
 
              Baa    -0.0003    -0.150    -0.054    -0.050  0.1327 -0.2997  0.9448
    48 H(1)   Bbb    -0.0000    -0.017    -0.006    -0.006  0.9542 -0.2194 -0.2036
              Bcc     0.0003     0.167     0.060     0.056  0.2683  0.9285  0.2568
 
              Baa    -0.0002    -0.128    -0.046    -0.043 -0.3213  0.8937 -0.3131
    49 H(1)   Bbb    -0.0000    -0.004    -0.001    -0.001 -0.6753  0.0156  0.7374
              Bcc     0.0002     0.131     0.047     0.044  0.6639  0.4483  0.5985
 
              Baa    -0.0001    -0.073    -0.026    -0.025 -0.0638  0.9877 -0.1426
    50 H(1)   Bbb    -0.0001    -0.059    -0.021    -0.020 -0.6247  0.0719  0.7775
              Bcc     0.0002     0.133     0.047     0.044  0.7782  0.1387  0.6125
 
              Baa    -0.0001    -0.068    -0.024    -0.023 -0.2214  0.7217 -0.6559
    51 H(1)   Bbb    -0.0001    -0.037    -0.013    -0.012  0.7858 -0.2662 -0.5582
              Bcc     0.0002     0.105     0.038     0.035  0.5775  0.6390  0.5081
 
              Baa    -0.0004    -0.227    -0.081    -0.076  0.1512 -0.4324  0.8889
    52 H(1)   Bbb    -0.0001    -0.065    -0.023    -0.022 -0.0136  0.8983  0.4393
              Bcc     0.0005     0.292     0.104     0.097  0.9884  0.0786 -0.1299
 
              Baa    -0.0007    -0.384    -0.137    -0.128 -0.1154 -0.5768  0.8087
    53 H(1)   Bbb    -0.0004    -0.204    -0.073    -0.068  0.6142  0.5984  0.5145
              Bcc     0.0011     0.588     0.210     0.196  0.7807 -0.5561 -0.2852
 
              Baa    -0.0032    -1.714    -0.612    -0.572  0.9790  0.1489 -0.1395
    54 H(1)   Bbb    -0.0014    -0.723    -0.258    -0.241  0.1819 -0.3271  0.9273
              Bcc     0.0046     2.437     0.870     0.813 -0.0925  0.9332  0.3473
 
              Baa    -0.0018    -0.977    -0.348    -0.326 -0.0369  0.2903  0.9562
    55 H(1)   Bbb    -0.0017    -0.893    -0.319    -0.298 -0.1992  0.9355 -0.2917
              Bcc     0.0035     1.870     0.667     0.624  0.9793  0.2013 -0.0233
 
              Baa    -0.0027    -1.457    -0.520    -0.486 -0.3563  0.6192  0.6997
    56 H(1)   Bbb     0.0009     0.499     0.178     0.166  0.5160  0.7547 -0.4051
              Bcc     0.0018     0.958     0.342     0.320  0.7789 -0.2167  0.5885
 
              Baa    -0.0026    -1.412    -0.504    -0.471 -0.3728  0.6651  0.6470
    57 H(1)   Bbb     0.0004     0.231     0.082     0.077  0.6223 -0.3380  0.7060
              Bcc     0.0022     1.181     0.421     0.394  0.6883  0.6659 -0.2879
 
              Baa    -0.0026    -1.409    -0.503    -0.470 -0.4555  0.6008  0.6569
    58 H(1)   Bbb     0.0004     0.220     0.078     0.073  0.1718 -0.6647  0.7271
              Bcc     0.0022     1.189     0.424     0.397  0.8735  0.4440  0.1996
 
              Baa    -0.0027    -1.458    -0.520    -0.486 -0.4194  0.5816  0.6970
    59 H(1)   Bbb     0.0010     0.552     0.197     0.184  0.9071  0.2390  0.3465
              Bcc     0.0017     0.907     0.324     0.302  0.0350  0.7776 -0.6278
 
              Baa    -0.0017    -0.899    -0.321    -0.300  0.3624 -0.0318  0.9315
    60 H(1)   Bbb    -0.0008    -0.448    -0.160    -0.149  0.3510  0.9305 -0.1048
              Bcc     0.0025     1.347     0.481     0.449  0.8634 -0.3649 -0.3484
 
              Baa    -0.0025    -1.344    -0.480    -0.448 -0.0921 -0.0210  0.9955
    61 H(1)   Bbb     0.0004     0.229     0.082     0.076 -0.1318  0.9912  0.0088
              Bcc     0.0021     1.115     0.398     0.372  0.9870  0.1304  0.0940
 
              Baa    -0.0026    -1.380    -0.493    -0.460  0.4167 -0.2322  0.8789
    62 H(1)   Bbb     0.0000     0.023     0.008     0.008  0.1237  0.9723  0.1982
              Bcc     0.0025     1.357     0.484     0.453  0.9006 -0.0261 -0.4339
 
              Baa    -0.0014    -0.764    -0.272    -0.255  0.6787 -0.4585 -0.5737
    63 H(1)   Bbb    -0.0011    -0.571    -0.204    -0.190  0.2708 -0.5699  0.7758
              Bcc     0.0025     1.335     0.476     0.445  0.6827  0.6819  0.2626
 
              Baa    -0.0016    -0.830    -0.296    -0.277  0.3293  0.2191  0.9185
    64 H(1)   Bbb    -0.0008    -0.417    -0.149    -0.139 -0.5348  0.8449 -0.0098
              Bcc     0.0023     1.246     0.445     0.416  0.7782  0.4880 -0.3954
 
              Baa    -0.0014    -0.760    -0.271    -0.254  0.8288 -0.1229  0.5459
    65 H(1)   Bbb    -0.0013    -0.687    -0.245    -0.229 -0.4823  0.3376  0.8083
              Bcc     0.0027     1.447     0.516     0.483  0.2837  0.9332 -0.2205
 
              Baa    -0.0025    -1.327    -0.474    -0.443  0.1472  0.1873  0.9712
    66 H(1)   Bbb     0.0005     0.244     0.087     0.081  0.9096 -0.4114 -0.0585
              Bcc     0.0020     1.083     0.387     0.361  0.3886  0.8920 -0.2309
 
              Baa    -0.0026    -1.382    -0.493    -0.461  0.2001 -0.3709  0.9069
    67 H(1)   Bbb     0.0001     0.049     0.017     0.016  0.9475 -0.1623 -0.2754
              Bcc     0.0025     1.333     0.476     0.445  0.2493  0.9144  0.3189
 
              Baa    -0.0016    -0.877    -0.313    -0.292  0.0266 -0.2652  0.9638
    68 H(1)   Bbb    -0.0008    -0.433    -0.155    -0.145  0.9970  0.0777 -0.0062
              Bcc     0.0025     1.310     0.467     0.437 -0.0733  0.9611  0.2664
 
              Baa    -0.0006    -0.337    -0.120    -0.112  0.0443 -0.4721  0.8804
    69 H(1)   Bbb    -0.0003    -0.158    -0.056    -0.053  0.9802  0.1906  0.0529
              Bcc     0.0009     0.495     0.177     0.165 -0.1928  0.8607  0.4712
 
              Baa    -0.0004    -0.215    -0.077    -0.072  0.1517 -0.4469  0.8816
    70 H(1)   Bbb    -0.0001    -0.043    -0.015    -0.014  0.6385 -0.6365 -0.4325
              Bcc     0.0005     0.258     0.092     0.086  0.7545  0.6286  0.1888
 

 ---------------------------------------------------------------------------------

 No NMR shielding tensors so no spin-rotation constants.
 Leave Link  601 at Sun Oct 12 05:12:42 2025, MaxMem= 30870077440 cpu:             198.4 elap:               3.5
 (Enter /work/home/accqbws0vm/apprepo/gaussian/16-hy/scripts/../app/g16/l9999.exe)
 1\1\GINC-G03R2N33\SP\UM062X\def2TZVPP\C30H29B1F2I2N4O2(1-,2)\ACCQBWS0V
 M\12-Oct-2025\0\\#p M062X/DEF2TZVPP scrf=(solvent=water) em=GD3\\Energ
 y calculation for M100033539_reduced\\-1,2\C,0,10.429004,-0.266858,0.2
 96458\C,0,9.87451,0.797559,-0.657223\N,0,8.697648,1.526996,-0.170744\C
 ,0,8.937542,2.768098,0.575003\C,0,9.059855,2.610004,2.094788\C,0,7.448
 506,0.937441,-0.181966\C,0,6.314062,1.577158,0.392492\C,0,5.052297,1.0
 09707,0.330111\C,0,4.819708,-0.234513,-0.296774\C,0,3.51814,-0.874788,
 -0.39436\C,0,2.330759,-0.359483,0.02151\C,0,1.033073,-0.987338,-0.0524
 61\N,0,-0.108205,-0.218756,-0.002089\C,0,-1.231995,-1.0448,-0.04384\C,
 0,-2.542704,-0.491608,-0.019134\C,0,-3.718113,-1.360726,0.079021\C,0,-
 3.861861,-2.282173,1.145842\C,0,-4.977172,-3.089598,1.255805\C,0,-5.98
 5932,-3.022314,0.270255\N,0,-7.116887,-3.853439,0.365136\O,0,-8.024979
 ,-3.778372,-0.521223\O,0,-7.212888,-4.670021,1.334094\C,0,-5.860216,-2
 .122127,-0.810238\C,0,-4.753566,-1.299093,-0.886407\C,0,-2.709429,0.92
 3943,-0.08779\C,0,-3.849747,1.754035,0.109602\C,0,-5.238332,1.383375,0
 .531406\C,0,-3.385166,3.070497,-0.087382\I,0,-4.544393,4.811608,0.0130
 03\C,0,-2.009192,3.04939,-0.347684\C,0,-1.066592,4.183689,-0.576153\N,
 0,-1.606912,1.747994,-0.33162\B,0,-0.12929,1.300662,-0.302688\F,0,0.55
 5658,2.014523,0.702557\F,0,0.490958,1.561506,-1.538049\C,0,-0.785231,-
 2.396672,-0.169729\C,0,-1.5896,-3.642515,-0.380942\C,0,0.615361,-2.338
 532,-0.141132\I,0,1.834075,-4.043164,-0.08127\C,0,5.94868,-0.874712,-0
 .849507\C,0,7.219666,-0.322363,-0.796153\H,0,9.673511,-1.018743,0.5436
 42\H,0,11.274038,-0.780102,-0.175681\H,0,10.783331,0.180603,1.229533\H
 ,0,10.648672,1.542481,-0.859923\H,0,9.634075,0.340581,-1.62269\H,0,9.8
 5998,3.201977,0.179998\H,0,8.142772,3.483148,0.339293\H,0,8.163429,2.1
 54115,2.525909\H,0,9.920388,1.990162,2.362478\H,0,9.193889,3.593987,2.
 557663\H,0,6.421191,2.529264,0.896506\H,0,4.227922,1.547005,0.790133\H
 ,0,3.531107,-1.849841,-0.872364\H,0,2.311455,0.64365,0.434601\H,0,-3.0
 92184,-2.330486,1.909324\H,0,-5.092851,-3.76683,2.09234\H,0,-6.628162,
 -2.092891,-1.57264\H,0,-4.657138,-0.612418,-1.721166\H,0,-5.699939,2.2
 22726,1.059346\H,0,-5.888621,1.135995,-0.315831\H,0,-5.238663,0.520152
 ,1.200162\H,0,-0.521158,4.438113,0.340038\H,0,-0.326141,3.924844,-1.33
 6784\H,0,-1.611807,5.071473,-0.902457\H,0,-1.91016,-4.106858,0.558527\
 H,0,-2.489117,-3.442088,-0.965983\H,0,-0.989991,-4.380682,-0.920334\H,
 0,5.82,-1.839553,-1.334651\H,0,8.039499,-0.875395,-1.236255\\Version=E
 S64L-G16RevA.03\State=2-A\HF=-2350.1310876\S2=0.777147\S2-1=0.\S2A=0.7
 50519\RMSD=7.101e-09\Dipole=8.1469577,2.5677635,0.1474935\Quadrupole=-
 21.233844,-4.4007979,25.634642,-37.3891832,6.2576311,7.4164261\PG=C01 
 [X(C30H29B1F2I2N4O2)]\\@


 A MATHEMATICIAN IS A MACHINE FOR TURNING COFFEE INTO THEOREMS.
     -- QUOTED BY PAUL ERDOS
 Job cpu time:       1 days 14 hours 47 minutes 33.6 seconds.
 Elapsed time:       0 days  0 hours 36 minutes 49.9 seconds.
 File lengths (MBytes):  RWF=   3180 Int=      0 D2E=      0 Chk=    205 Scr=      1
 Normal termination of Gaussian 16 at Sun Oct 12 05:12:43 2025.
