 Entering Gaussian System, Link 0=g16
 Input=M100035179_reduced_sp.gjf
 Output=M100035179_reduced_sp.log
 Initial command:
 /public/software/gauss/g16/l1.exe "/public/home/baiding/1101_v2_sp/tmp_M100035179_reduced_sp_1568608/Gau-14276.inp" -scrdir="/public/home/baiding/1101_v2_sp/tmp_M100035179_reduced_sp_1568608/"
 Entering Link 1 = /public/software/gauss/g16/l1.exe PID=     14277.
  
 Copyright (c) 1988,1990,1992,1993,1995,1998,2003,2009,2016,
            Gaussian, Inc.  All Rights Reserved.
  
 This is part of the Gaussian(R) 16 program.  It is based on
 the Gaussian(R) 09 system (copyright 2009, Gaussian, Inc.),
 the Gaussian(R) 03 system (copyright 2003, Gaussian, Inc.),
 the Gaussian(R) 98 system (copyright 1998, Gaussian, Inc.),
 the Gaussian(R) 94 system (copyright 1995, Gaussian, Inc.),
 the Gaussian 92(TM) system (copyright 1992, Gaussian, Inc.),
 the Gaussian 90(TM) system (copyright 1990, Gaussian, Inc.),
 the Gaussian 88(TM) system (copyright 1988, Gaussian, Inc.),
 the Gaussian 86(TM) system (copyright 1986, Carnegie Mellon
 University), and the Gaussian 82(TM) system (copyright 1983,
 Carnegie Mellon University). Gaussian is a federally registered
 trademark of Gaussian, Inc.
  
 This software contains proprietary and confidential information,
 including trade secrets, belonging to Gaussian, Inc.
  
 This software is provided under written license and may be
 used, copied, transmitted, or stored only in accord with that
 written license.
  
 The following legend is applicable only to US Government
 contracts under FAR:
  
                    RESTRICTED RIGHTS LEGEND
  
 Use, reproduction and disclosure by the US Government is
 subject to restrictions as set forth in subparagraphs (a)
 and (c) of the Commercial Computer Software - Restricted
 Rights clause in FAR 52.227-19.
  
 Gaussian, Inc.
 340 Quinnipiac St., Bldg. 40, Wallingford CT 06492
  
  
 ---------------------------------------------------------------
 Warning -- This program may not be used in any manner that
 competes with the business of Gaussian, Inc. or will provide
 assistance to any competitor of Gaussian, Inc.  The licensee
 of this program is prohibited from giving any competitor of
 Gaussian, Inc. access to this program.  By using this program,
 the user acknowledges that Gaussian, Inc. is engaged in the
 business of creating and licensing software in the field of
 computational chemistry and represents and warrants to the
 licensee that it is not a competitor of Gaussian, Inc. and that
 it will not use this program in any manner prohibited above.
 ---------------------------------------------------------------
  

 Cite this work as:
 Gaussian 16, Revision A.03,
 M. J. Frisch, G. W. Trucks, H. B. Schlegel, G. E. Scuseria, 
 M. A. Robb, J. R. Cheeseman, G. Scalmani, V. Barone, 
 G. A. Petersson, H. Nakatsuji, X. Li, M. Caricato, A. V. Marenich, 
 J. Bloino, B. G. Janesko, R. Gomperts, B. Mennucci, H. P. Hratchian, 
 J. V. Ortiz, A. F. Izmaylov, J. L. Sonnenberg, D. Williams-Young, 
 F. Ding, F. Lipparini, F. Egidi, J. Goings, B. Peng, A. Petrone, 
 T. Henderson, D. Ranasinghe, V. G. Zakrzewski, J. Gao, N. Rega, 
 G. Zheng, W. Liang, M. Hada, M. Ehara, K. Toyota, R. Fukuda, 
 J. Hasegawa, M. Ishida, T. Nakajima, Y. Honda, O. Kitao, H. Nakai, 
 T. Vreven, K. Throssell, J. A. Montgomery, Jr., J. E. Peralta, 
 F. Ogliaro, M. J. Bearpark, J. J. Heyd, E. N. Brothers, K. N. Kudin, 
 V. N. Staroverov, T. A. Keith, R. Kobayashi, J. Normand, 
 K. Raghavachari, A. P. Rendell, J. C. Burant, S. S. Iyengar, 
 J. Tomasi, M. Cossi, J. M. Millam, M. Klene, C. Adamo, R. Cammi, 
 J. W. Ochterski, R. L. Martin, K. Morokuma, O. Farkas, 
 J. B. Foresman, and D. J. Fox, Gaussian, Inc., Wallingford CT, 2016.
 
 ******************************************
 Gaussian 16:  ES64L-G16RevA.03 25-Dec-2016
                 7-Nov-2025 
 ******************************************
 %nprocshared=64
 Will use up to   64 processors via shared memory.
 %mem=230GB
 %chk=M100035179_reduced_sp.chk
 ----------------------------------------------
 #p M062X/DEF2TZVPP scrf=(solvent=water) em=GD3
 ----------------------------------------------
 1/38=1,172=1/1;
 2/12=2,17=6,18=5,40=1/2;
 3/5=44,7=202,11=2,25=1,30=1,70=2201,72=1,74=-55,124=31/1,2,3;
 4//1;
 5/5=2,38=5,53=1/2;
 6/7=2,8=2,9=2,10=2,28=1/1;
 99/5=1,9=1/99;
 Leave Link    1 at Fri Nov  7 06:32:34 2025, MaxMem= 30870077440 cpu:              22.5 elap:               0.4
 (Enter /public/software/gauss/g16/l101.exe)
 -----------------------------------------
 Energy calculation for M100035179_reduced
 -----------------------------------------
 Symbolic Z-matrix:
 Charge = -1 Multiplicity = 2
 C                     1.34131   6.14669  -0.07119 
 C                     1.51314   4.65416  -0.06943 
 C                     2.75057   4.01618  -0.01844 
 C                     2.56732   2.62311  -0.0808 
 C                     3.66579   1.69714  -0.02108 
 C                     3.68998   0.34264   0.12112 
 C                     4.88663  -0.49538   0.16341 
 C                     4.73906  -1.86723   0.43463 
 C                     5.81584  -2.75337   0.50698 
 C                     5.58688  -4.25479   0.80883 
 C                     4.09096  -4.57977   0.99841 
 C                     6.08958  -5.12623  -0.36762 
 C                     6.30384  -4.66217   2.11879 
 C                     7.10889  -2.21535   0.2905 
 O                     8.15866  -3.10819   0.37189 
 C                     7.31922  -0.8409    0.00023 
 C                     8.73106  -0.24875  -0.25444 
 C                     8.67459   1.26365  -0.55464 
 C                     9.39175  -0.90715  -1.49411 
 C                     9.62794  -0.40285   1.00187 
 C                     6.19087  -0.01871  -0.05501 
 N                     1.2007    2.38415  -0.18383 
 C                     0.53364   3.61525  -0.16601 
 C                    -0.87951   3.68416  -0.30169 
 C                    -1.57468   4.98923  -0.16516 
 C                    -1.61307   5.65777   1.07361 
 C                    -2.26344   6.8772    1.21475 
 C                    -2.89134   7.46324   0.10046 
 C                    -3.55898   8.71849   0.23532 
 N                    -4.10488   9.7443    0.34556 
 C                    -2.86097   6.81254  -1.14673 
 C                    -2.2122    5.59017  -1.26775 
 C                    -1.62886   2.5041   -0.57063 
 C                    -3.03587   2.26248  -0.64801 
 C                    -4.18834   3.21154  -0.4785 
 C                    -3.18769   0.89471  -0.89657 
 C                    -1.92085   0.2924   -0.96089 
 C                    -1.52253  -1.05342  -1.30848 
 C                    -2.19323  -2.23909  -1.27521 
 C                    -3.4863   -2.6381   -0.70829 
 C                    -4.12018  -1.97896   0.35821 
 C                    -5.32615  -2.41665   0.90887 
 C                    -5.9814   -1.64761   2.08274 
 C                    -6.1364   -2.56416   3.32049 
 C                    -7.36042  -1.0886    1.65558 
 C                    -5.12665  -0.44271   2.52709 
 C                    -5.9146   -3.58016   0.34836 
 O                    -7.11317  -3.98006   0.90238 
 C                    -5.30235  -4.30659  -0.70388 
 C                    -5.91074  -5.60827  -1.28919 
 C                    -5.02462  -6.20509  -2.40217 
 C                    -6.02358  -6.69933  -0.1933 
 C                    -7.29081  -5.33534  -1.94258 
 C                    -4.09298  -3.80634  -1.19694 
 N                    -0.97531   1.29202  -0.76431 
 B                     0.5216    1.04093  -0.5072 
 F                     0.66084   0.1284    0.57141 
 F                     1.12412   0.45461  -1.64678 
 H                     0.66835   6.48932  -0.86337 
 H                     0.93906   6.53263   0.87244 
 H                     2.31354   6.62343  -0.23071 
 H                     3.71465   4.50399   0.06109 
 H                     4.6206    2.21889  -0.07066 
 H                     2.75473  -0.19043   0.24485 
 H                     3.7339   -2.23751   0.59567 
 H                     3.50238  -4.35791   0.10237 
 H                     3.9834   -5.64922   1.2064 
 H                     3.6521   -4.03493   1.84052 
 H                     5.5559   -4.87306  -1.29049 
 H                     7.15803  -5.00212  -0.54783 
 H                     5.90159  -6.18457  -0.15336 
 H                     7.38351  -4.51908   2.0624 
 H                     5.92536  -4.07636   2.96388 
 H                     6.11219  -5.7197    2.33383 
 H                     8.99732  -2.65705   0.22072 
 H                     8.08942   1.48376  -1.45276 
 H                     8.25482   1.83378   0.27973 
 H                     9.69199   1.629    -0.72572 
 H                     8.78244  -0.72882  -2.38605 
 H                     10.37967  -0.46657  -1.66489 
 H                     9.53221  -1.98907  -1.41384 
 H                     10.6098   0.04379   0.81304 
 H                     9.17754   0.11571   1.85435 
 H                     9.80244  -1.43744   1.31258 
 H                     6.32295   1.02988  -0.28389 
 H                    -1.13424   5.20537   1.93588 
 H                    -2.29518   7.37723   2.17684 
 H                    -3.33849   7.27121  -2.00598 
 H                    -2.18407   5.09435  -2.23247 
 H                    -4.31818   3.88599  -1.33272 
 H                    -5.11622   2.64147  -0.36873 
 H                    -4.08038   3.84442   0.408 
 H                    -4.13112   0.38802  -1.04467 
 H                    -0.51636  -1.10892  -1.71466 
 H                    -1.66521  -3.06716  -1.74709 
 H                    -3.63883  -1.10557   0.77265 
 H                    -6.77919  -3.42293   3.12493 
 H                    -5.15967  -2.9365    3.64918 
 H                    -6.57244  -1.99595   4.15009 
 H                    -7.25167  -0.39705   0.81265 
 H                    -8.05354  -1.87754   1.36061 
 H                    -7.81072  -0.53341   2.48646 
 H                    -4.98924   0.28993   1.7252 
 H                    -5.63284   0.06562   3.35412 
 H                    -4.13759  -0.74769   2.88433 
 H                    -7.49125  -4.70842   0.39527 
 H                    -4.91415  -5.52366  -3.25136 
 H                    -4.0269   -6.4671   -2.03718 
 H                    -5.49191  -7.12248  -2.77355 
 H                    -6.45047  -7.61272  -0.62103 
 H                    -5.03176  -6.94234   0.20167 
 H                    -6.64886  -6.41511   0.65704 
 H                    -7.19254  -4.59577  -2.74364 
 H                    -7.68201  -6.26011  -2.37936 
 H                    -8.05918  -4.96205  -1.25767 
 H                    -3.58679  -4.33348  -1.99615 
 
 ITRead=  0  0  0  0  0  0  0  0  0  0  0  0  0  0  0  0  0  0  0  0
 ITRead=  0  0  0  0  0  0  0  0  0  0  0  0  0  0  0  0  0  0  0  0
 ITRead=  0  0  0  0  0  0  0  0  0  0  0  0  0  0  0  0  0  0  0  0
 ITRead=  0  0  0  0  0  0  0  0  0  0  0  0  0  0  0  0  0  0  0  0
 ITRead=  0  0  0  0  0  0  0  0  0  0  0  0  0  0  0  0  0  0  0  0
 ITRead=  0  0  0  0  0  0  0  0  0  0  0  0  0  0  0  0
 MicOpt= -1 -1 -1 -1 -1 -1 -1 -1 -1 -1 -1 -1 -1 -1 -1 -1 -1 -1 -1 -1
 MicOpt= -1 -1 -1 -1 -1 -1 -1 -1 -1 -1 -1 -1 -1 -1 -1 -1 -1 -1 -1 -1
 MicOpt= -1 -1 -1 -1 -1 -1 -1 -1 -1 -1 -1 -1 -1 -1 -1 -1 -1 -1 -1 -1
 MicOpt= -1 -1 -1 -1 -1 -1 -1 -1 -1 -1 -1 -1 -1 -1 -1 -1 -1 -1 -1 -1
 MicOpt= -1 -1 -1 -1 -1 -1 -1 -1 -1 -1 -1 -1 -1 -1 -1 -1 -1 -1 -1 -1
 MicOpt= -1 -1 -1 -1 -1 -1 -1 -1 -1 -1 -1 -1 -1 -1 -1 -1
 NAtoms=    116 NQM=      116 NQMF=       0 NMMI=      0 NMMIF=      0
                NMic=       0 NMicF=      0.
                    Isotopes and Nuclear Properties:
 (Nuclear quadrupole moments (NQMom) in fm**2, nuclear magnetic moments (NMagM)
  in nuclear magnetons)

  Atom         1           2           3           4           5           6           7           8           9          10
 IAtWgt=          12          12          12          12          12          12          12          12          12          12
 AtmWgt=  12.0000000  12.0000000  12.0000000  12.0000000  12.0000000  12.0000000  12.0000000  12.0000000  12.0000000  12.0000000
 NucSpn=           0           0           0           0           0           0           0           0           0           0
 AtZEff=  -0.0000000  -0.0000000  -0.0000000  -0.0000000  -0.0000000  -0.0000000  -0.0000000  -0.0000000  -0.0000000  -0.0000000
 NQMom=    0.0000000   0.0000000   0.0000000   0.0000000   0.0000000   0.0000000   0.0000000   0.0000000   0.0000000   0.0000000
 NMagM=    0.0000000   0.0000000   0.0000000   0.0000000   0.0000000   0.0000000   0.0000000   0.0000000   0.0000000   0.0000000
 AtZNuc=   6.0000000   6.0000000   6.0000000   6.0000000   6.0000000   6.0000000   6.0000000   6.0000000   6.0000000   6.0000000

  Atom        11          12          13          14          15          16          17          18          19          20
 IAtWgt=          12          12          12          12          16          12          12          12          12          12
 AtmWgt=  12.0000000  12.0000000  12.0000000  12.0000000  15.9949146  12.0000000  12.0000000  12.0000000  12.0000000  12.0000000
 NucSpn=           0           0           0           0           0           0           0           0           0           0
 AtZEff=  -0.0000000  -0.0000000  -0.0000000  -0.0000000  -0.0000000  -0.0000000  -0.0000000  -0.0000000  -0.0000000  -0.0000000
 NQMom=    0.0000000   0.0000000   0.0000000   0.0000000   0.0000000   0.0000000   0.0000000   0.0000000   0.0000000   0.0000000
 NMagM=    0.0000000   0.0000000   0.0000000   0.0000000   0.0000000   0.0000000   0.0000000   0.0000000   0.0000000   0.0000000
 AtZNuc=   6.0000000   6.0000000   6.0000000   6.0000000   8.0000000   6.0000000   6.0000000   6.0000000   6.0000000   6.0000000

  Atom        21          22          23          24          25          26          27          28          29          30
 IAtWgt=          12          14          12          12          12          12          12          12          12          14
 AtmWgt=  12.0000000  14.0030740  12.0000000  12.0000000  12.0000000  12.0000000  12.0000000  12.0000000  12.0000000  14.0030740
 NucSpn=           0           2           0           0           0           0           0           0           0           2
 AtZEff=  -0.0000000  -0.0000000  -0.0000000  -0.0000000  -0.0000000  -0.0000000  -0.0000000  -0.0000000  -0.0000000  -0.0000000
 NQMom=    0.0000000   2.0440000   0.0000000   0.0000000   0.0000000   0.0000000   0.0000000   0.0000000   0.0000000   2.0440000
 NMagM=    0.0000000   0.4037610   0.0000000   0.0000000   0.0000000   0.0000000   0.0000000   0.0000000   0.0000000   0.4037610
 AtZNuc=   6.0000000   7.0000000   6.0000000   6.0000000   6.0000000   6.0000000   6.0000000   6.0000000   6.0000000   7.0000000

  Atom        31          32          33          34          35          36          37          38          39          40
 IAtWgt=          12          12          12          12          12          12          12          12          12          12
 AtmWgt=  12.0000000  12.0000000  12.0000000  12.0000000  12.0000000  12.0000000  12.0000000  12.0000000  12.0000000  12.0000000
 NucSpn=           0           0           0           0           0           0           0           0           0           0
 AtZEff=  -0.0000000  -0.0000000  -0.0000000  -0.0000000  -0.0000000  -0.0000000  -0.0000000  -0.0000000  -0.0000000  -0.0000000
 NQMom=    0.0000000   0.0000000   0.0000000   0.0000000   0.0000000   0.0000000   0.0000000   0.0000000   0.0000000   0.0000000
 NMagM=    0.0000000   0.0000000   0.0000000   0.0000000   0.0000000   0.0000000   0.0000000   0.0000000   0.0000000   0.0000000
 AtZNuc=   6.0000000   6.0000000   6.0000000   6.0000000   6.0000000   6.0000000   6.0000000   6.0000000   6.0000000   6.0000000

  Atom        41          42          43          44          45          46          47          48          49          50
 IAtWgt=          12          12          12          12          12          12          12          16          12          12
 AtmWgt=  12.0000000  12.0000000  12.0000000  12.0000000  12.0000000  12.0000000  12.0000000  15.9949146  12.0000000  12.0000000
 NucSpn=           0           0           0           0           0           0           0           0           0           0
 AtZEff=  -0.0000000  -0.0000000  -0.0000000  -0.0000000  -0.0000000  -0.0000000  -0.0000000  -0.0000000  -0.0000000  -0.0000000
 NQMom=    0.0000000   0.0000000   0.0000000   0.0000000   0.0000000   0.0000000   0.0000000   0.0000000   0.0000000   0.0000000
 NMagM=    0.0000000   0.0000000   0.0000000   0.0000000   0.0000000   0.0000000   0.0000000   0.0000000   0.0000000   0.0000000
 AtZNuc=   6.0000000   6.0000000   6.0000000   6.0000000   6.0000000   6.0000000   6.0000000   8.0000000   6.0000000   6.0000000

  Atom        51          52          53          54          55          56          57          58          59          60
 IAtWgt=          12          12          12          12          14          11          19          19           1           1
 AtmWgt=  12.0000000  12.0000000  12.0000000  12.0000000  14.0030740  11.0093053  18.9984033  18.9984033   1.0078250   1.0078250
 NucSpn=           0           0           0           0           2           3           1           1           1           1
 AtZEff=  -0.0000000  -0.0000000  -0.0000000  -0.0000000  -0.0000000  -0.0000000  -0.0000000  -0.0000000  -0.0000000  -0.0000000
 NQMom=    0.0000000   0.0000000   0.0000000   0.0000000   2.0440000   4.0590000   0.0000000   0.0000000   0.0000000   0.0000000
 NMagM=    0.0000000   0.0000000   0.0000000   0.0000000   0.4037610   2.6886370   2.6288670   2.6288670   2.7928460   2.7928460
 AtZNuc=   6.0000000   6.0000000   6.0000000   6.0000000   7.0000000   5.0000000   9.0000000   9.0000000   1.0000000   1.0000000

  Atom        61          62          63          64          65          66          67          68          69          70
 IAtWgt=           1           1           1           1           1           1           1           1           1           1
 AtmWgt=   1.0078250   1.0078250   1.0078250   1.0078250   1.0078250   1.0078250   1.0078250   1.0078250   1.0078250   1.0078250
 NucSpn=           1           1           1           1           1           1           1           1           1           1
 AtZEff=  -0.0000000  -0.0000000  -0.0000000  -0.0000000  -0.0000000  -0.0000000  -0.0000000  -0.0000000  -0.0000000  -0.0000000
 NQMom=    0.0000000   0.0000000   0.0000000   0.0000000   0.0000000   0.0000000   0.0000000   0.0000000   0.0000000   0.0000000
 NMagM=    2.7928460   2.7928460   2.7928460   2.7928460   2.7928460   2.7928460   2.7928460   2.7928460   2.7928460   2.7928460
 AtZNuc=   1.0000000   1.0000000   1.0000000   1.0000000   1.0000000   1.0000000   1.0000000   1.0000000   1.0000000   1.0000000

  Atom        71          72          73          74          75          76          77          78          79          80
 IAtWgt=           1           1           1           1           1           1           1           1           1           1
 AtmWgt=   1.0078250   1.0078250   1.0078250   1.0078250   1.0078250   1.0078250   1.0078250   1.0078250   1.0078250   1.0078250
 NucSpn=           1           1           1           1           1           1           1           1           1           1
 AtZEff=  -0.0000000  -0.0000000  -0.0000000  -0.0000000  -0.0000000  -0.0000000  -0.0000000  -0.0000000  -0.0000000  -0.0000000
 NQMom=    0.0000000   0.0000000   0.0000000   0.0000000   0.0000000   0.0000000   0.0000000   0.0000000   0.0000000   0.0000000
 NMagM=    2.7928460   2.7928460   2.7928460   2.7928460   2.7928460   2.7928460   2.7928460   2.7928460   2.7928460   2.7928460
 AtZNuc=   1.0000000   1.0000000   1.0000000   1.0000000   1.0000000   1.0000000   1.0000000   1.0000000   1.0000000   1.0000000

  Atom        81          82          83          84          85          86          87          88          89          90
 IAtWgt=           1           1           1           1           1           1           1           1           1           1
 AtmWgt=   1.0078250   1.0078250   1.0078250   1.0078250   1.0078250   1.0078250   1.0078250   1.0078250   1.0078250   1.0078250
 NucSpn=           1           1           1           1           1           1           1           1           1           1
 AtZEff=  -0.0000000  -0.0000000  -0.0000000  -0.0000000  -0.0000000  -0.0000000  -0.0000000  -0.0000000  -0.0000000  -0.0000000
 NQMom=    0.0000000   0.0000000   0.0000000   0.0000000   0.0000000   0.0000000   0.0000000   0.0000000   0.0000000   0.0000000
 NMagM=    2.7928460   2.7928460   2.7928460   2.7928460   2.7928460   2.7928460   2.7928460   2.7928460   2.7928460   2.7928460
 AtZNuc=   1.0000000   1.0000000   1.0000000   1.0000000   1.0000000   1.0000000   1.0000000   1.0000000   1.0000000   1.0000000

  Atom        91          92          93          94          95          96          97          98          99         100
 IAtWgt=           1           1           1           1           1           1           1           1           1           1
 AtmWgt=   1.0078250   1.0078250   1.0078250   1.0078250   1.0078250   1.0078250   1.0078250   1.0078250   1.0078250   1.0078250
 NucSpn=           1           1           1           1           1           1           1           1           1           1
 AtZEff=  -0.0000000  -0.0000000  -0.0000000  -0.0000000  -0.0000000  -0.0000000  -0.0000000  -0.0000000  -0.0000000  -0.0000000
 NQMom=    0.0000000   0.0000000   0.0000000   0.0000000   0.0000000   0.0000000   0.0000000   0.0000000   0.0000000   0.0000000
 NMagM=    2.7928460   2.7928460   2.7928460   2.7928460   2.7928460   2.7928460   2.7928460   2.7928460   2.7928460   2.7928460
 AtZNuc=   1.0000000   1.0000000   1.0000000   1.0000000   1.0000000   1.0000000   1.0000000   1.0000000   1.0000000   1.0000000

  Atom       101         102         103         104         105         106         107         108         109         110
 IAtWgt=           1           1           1           1           1           1           1           1           1           1
 AtmWgt=   1.0078250   1.0078250   1.0078250   1.0078250   1.0078250   1.0078250   1.0078250   1.0078250   1.0078250   1.0078250
 NucSpn=           1           1           1           1           1           1           1           1           1           1
 AtZEff=  -0.0000000  -0.0000000  -0.0000000  -0.0000000  -0.0000000  -0.0000000  -0.0000000  -0.0000000  -0.0000000  -0.0000000
 NQMom=    0.0000000   0.0000000   0.0000000   0.0000000   0.0000000   0.0000000   0.0000000   0.0000000   0.0000000   0.0000000
 NMagM=    2.7928460   2.7928460   2.7928460   2.7928460   2.7928460   2.7928460   2.7928460   2.7928460   2.7928460   2.7928460
 AtZNuc=   1.0000000   1.0000000   1.0000000   1.0000000   1.0000000   1.0000000   1.0000000   1.0000000   1.0000000   1.0000000

  Atom       111         112         113         114         115         116
 IAtWgt=           1           1           1           1           1           1
 AtmWgt=   1.0078250   1.0078250   1.0078250   1.0078250   1.0078250   1.0078250
 NucSpn=           1           1           1           1           1           1
 AtZEff=  -0.0000000  -0.0000000  -0.0000000  -0.0000000  -0.0000000  -0.0000000
 NQMom=    0.0000000   0.0000000   0.0000000   0.0000000   0.0000000   0.0000000
 NMagM=    2.7928460   2.7928460   2.7928460   2.7928460   2.7928460   2.7928460
 AtZNuc=   1.0000000   1.0000000   1.0000000   1.0000000   1.0000000   1.0000000
 Leave Link  101 at Fri Nov  7 06:32:34 2025, MaxMem= 30870077440 cpu:               4.6 elap:               0.1
 (Enter /public/software/gauss/g16/l202.exe)
 Stoichiometry    C50H58BF2N3O2(1-,2)
 Framework group  C1[X(C50H58BF2N3O2)]
 Deg. of freedom   342
 Full point group                 C1      NOp   1
 Largest Abelian subgroup         C1      NOp   1
 Largest concise Abelian subgroup C1      NOp   1
                         Standard orientation:                         
 ---------------------------------------------------------------------
 Center     Atomic      Atomic             Coordinates (Angstroms)
 Number     Number       Type             X           Y           Z
 ---------------------------------------------------------------------
      1          6           0        1.341309    6.146692   -0.071185
      2          6           0        1.513136    4.654164   -0.069425
      3          6           0        2.750566    4.016182   -0.018439
      4          6           0        2.567322    2.623111   -0.080796
      5          6           0        3.665794    1.697144   -0.021083
      6          6           0        3.689983    0.342643    0.121124
      7          6           0        4.886632   -0.495383    0.163407
      8          6           0        4.739056   -1.867227    0.434633
      9          6           0        5.815838   -2.753369    0.506980
     10          6           0        5.586881   -4.254792    0.808833
     11          6           0        4.090963   -4.579766    0.998406
     12          6           0        6.089578   -5.126231   -0.367618
     13          6           0        6.303841   -4.662171    2.118786
     14          6           0        7.108892   -2.215345    0.290501
     15          8           0        8.158657   -3.108186    0.371889
     16          6           0        7.319223   -0.840903    0.000234
     17          6           0        8.731063   -0.248752   -0.254435
     18          6           0        8.674591    1.263653   -0.554637
     19          6           0        9.391751   -0.907153   -1.494111
     20          6           0        9.627939   -0.402853    1.001866
     21          6           0        6.190871   -0.018705   -0.055008
     22          7           0        1.200701    2.384153   -0.183828
     23          6           0        0.533638    3.615252   -0.166010
     24          6           0       -0.879514    3.684156   -0.301691
     25          6           0       -1.574680    4.989226   -0.165159
     26          6           0       -1.613072    5.657771    1.073610
     27          6           0       -2.263440    6.877197    1.214745
     28          6           0       -2.891338    7.463236    0.100460
     29          6           0       -3.558980    8.718492    0.235322
     30          7           0       -4.104876    9.744304    0.345556
     31          6           0       -2.860965    6.812539   -1.146733
     32          6           0       -2.212198    5.590173   -1.267751
     33          6           0       -1.628861    2.504101   -0.570631
     34          6           0       -3.035866    2.262475   -0.648009
     35          6           0       -4.188342    3.211544   -0.478501
     36          6           0       -3.187688    0.894713   -0.896570
     37          6           0       -1.920846    0.292400   -0.960885
     38          6           0       -1.522526   -1.053417   -1.308483
     39          6           0       -2.193229   -2.239089   -1.275208
     40          6           0       -3.486302   -2.638104   -0.708294
     41          6           0       -4.120179   -1.978955    0.358210
     42          6           0       -5.326145   -2.416647    0.908869
     43          6           0       -5.981398   -1.647613    2.082742
     44          6           0       -6.136396   -2.564159    3.320494
     45          6           0       -7.360415   -1.088602    1.655581
     46          6           0       -5.126647   -0.442708    2.527088
     47          6           0       -5.914595   -3.580156    0.348362
     48          8           0       -7.113168   -3.980058    0.902379
     49          6           0       -5.302351   -4.306586   -0.703882
     50          6           0       -5.910740   -5.608269   -1.289194
     51          6           0       -5.024620   -6.205089   -2.402165
     52          6           0       -6.023582   -6.699331   -0.193299
     53          6           0       -7.290812   -5.335339   -1.942583
     54          6           0       -4.092981   -3.806340   -1.196938
     55          7           0       -0.975306    1.292023   -0.764305
     56          5           0        0.521595    1.040932   -0.507196
     57          9           0        0.660841    0.128395    0.571406
     58          9           0        1.124116    0.454614   -1.646775
     59          1           0        0.668351    6.489319   -0.863371
     60          1           0        0.939058    6.532628    0.872444
     61          1           0        2.313541    6.623431   -0.230709
     62          1           0        3.714649    4.503994    0.061092
     63          1           0        4.620603    2.218894   -0.070663
     64          1           0        2.754725   -0.190434    0.244853
     65          1           0        3.733904   -2.237510    0.595674
     66          1           0        3.502380   -4.357910    0.102366
     67          1           0        3.983403   -5.649216    1.206401
     68          1           0        3.652104   -4.034931    1.840519
     69          1           0        5.555898   -4.873055   -1.290487
     70          1           0        7.158033   -5.002122   -0.547832
     71          1           0        5.901587   -6.184569   -0.153357
     72          1           0        7.383506   -4.519079    2.062403
     73          1           0        5.925360   -4.076357    2.963878
     74          1           0        6.112188   -5.719696    2.333827
     75          1           0        8.997320   -2.657046    0.220718
     76          1           0        8.089423    1.483756   -1.452755
     77          1           0        8.254817    1.833776    0.279730
     78          1           0        9.691994    1.628995   -0.725715
     79          1           0        8.782443   -0.728821   -2.386050
     80          1           0       10.379665   -0.466572   -1.664885
     81          1           0        9.532213   -1.989070   -1.413836
     82          1           0       10.609795    0.043792    0.813044
     83          1           0        9.177535    0.115708    1.854351
     84          1           0        9.802435   -1.437444    1.312584
     85          1           0        6.322954    1.029878   -0.283894
     86          1           0       -1.134238    5.205367    1.935881
     87          1           0       -2.295181    7.377226    2.176838
     88          1           0       -3.338485    7.271210   -2.005977
     89          1           0       -2.184072    5.094352   -2.232470
     90          1           0       -4.318178    3.885987   -1.332720
     91          1           0       -5.116219    2.641473   -0.368729
     92          1           0       -4.080380    3.844420    0.408003
     93          1           0       -4.131118    0.388022   -1.044667
     94          1           0       -0.516363   -1.108922   -1.714655
     95          1           0       -1.665207   -3.067156   -1.747086
     96          1           0       -3.638829   -1.105570    0.772648
     97          1           0       -6.779189   -3.422934    3.124933
     98          1           0       -5.159667   -2.936500    3.649177
     99          1           0       -6.572438   -1.995946    4.150089
    100          1           0       -7.251667   -0.397050    0.812646
    101          1           0       -8.053542   -1.877542    1.360611
    102          1           0       -7.810719   -0.533406    2.486458
    103          1           0       -4.989236    0.289925    1.725197
    104          1           0       -5.632839    0.065622    3.354122
    105          1           0       -4.137593   -0.747686    2.884333
    106          1           0       -7.491252   -4.708418    0.395268
    107          1           0       -4.914150   -5.523663   -3.251360
    108          1           0       -4.026904   -6.467101   -2.037176
    109          1           0       -5.491912   -7.122483   -2.773554
    110          1           0       -6.450473   -7.612717   -0.621028
    111          1           0       -5.031761   -6.942342    0.201668
    112          1           0       -6.648857   -6.415107    0.657037
    113          1           0       -7.192541   -4.595766   -2.743639
    114          1           0       -7.682005   -6.260105   -2.379363
    115          1           0       -8.059178   -4.962048   -1.257671
    116          1           0       -3.586786   -4.333480   -1.996149
 ---------------------------------------------------------------------
 Rotational constants (GHZ):           0.0381702           0.0246176           0.0159208
 Leave Link  202 at Fri Nov  7 06:32:34 2025, MaxMem= 30870077440 cpu:               0.2 elap:               0.0
 (Enter /public/software/gauss/g16/l301.exe)
 Standard basis: def2TZVPP (5D, 7F)
 Ernie: Thresh=  0.10000D-02 Tol=  0.10000D-05 Strict=F.
 There are  2958 symmetry adapted cartesian basis functions of A   symmetry.
 There are  2610 symmetry adapted basis functions of A   symmetry.
  2610 basis functions,  3944 primitive gaussians,  2958 cartesian basis functions
   210 alpha electrons      209 beta electrons
       nuclear repulsion energy      7743.7614501883 Hartrees.
 IExCor= 4336 DFT=T Ex+Corr=M062X ExCW=0 ScaHFX=  0.540000
 ScaDFX=  1.000000  1.000000  1.000000  1.000000 ScalE2=  1.000000  1.000000
 IRadAn=      5 IRanWt=     -1 IRanGd=            0 ICorTp=0 IEmpDi=131
 NAtoms=  116 NActive=  116 NUniq=  116 SFac= 1.00D+00 NAtFMM=   60 NAOKFM=T Big=T
 Integral buffers will be    131072 words long.
 Raffenetti 2 integral format.
 Two-electron integral symmetry is turned on.
 R6Disp:  Grimme-D3 Dispersion energy=       -0.0111634992 Hartrees.
 Nuclear repulsion after empirical dispersion term =     7743.7502866891 Hartrees.
 ------------------------------------------------------------------------------
 Polarizable Continuum Model (PCM)
 =================================
 Model                : PCM.
 Atomic radii         : UFF (Universal Force Field).
 Polarization charges : Total charges.
 Charge compensation  : None.
 Solution method      : On-the-fly selection.
 Cavity type          : Scaled VdW (van der Waals Surface) (Alpha=1.100).
 Cavity algorithm     : GePol (No added spheres)
                        Default sphere list used, NSphG=  116.
                        Lebedev-Laikov grids with approx.  5.0 points / Ang**2.
                        Smoothing algorithm: York/Karplus (Gamma=1.0000).
                        Polarization charges: spherical gaussians, with
                                              point-specific exponents (IZeta= 3).
                        Self-potential: point-specific (ISelfS= 7).
                        Self-field    : sphere-specific E.n sum rule (ISelfD= 2).
 Solvent              : Water, Eps=  78.355300 Eps(inf)=   1.777849
 ------------------------------------------------------------------------------
 GePol: Number of generator spheres                  =     116
 GePol: Total number of spheres                      =     116
 GePol: Number of exposed spheres                    =     116 (100.00%)
 GePol: Number of points                             =    7246
 GePol: Average weight of points                     =       0.13
 GePol: Minimum weight of points                     =   0.37D-11
 GePol: Maximum weight of points                     =    0.20577
 GePol: Number of points with low weight             =     496
 GePol: Fraction of low-weight points (<1% of avg)   =       6.85%
 GePol: Cavity surface area                          =    931.294 Ang**2
 GePol: Cavity volume                                =   1115.942 Ang**3
 Leave Link  301 at Fri Nov  7 06:32:34 2025, MaxMem= 30870077440 cpu:               4.1 elap:               0.1
 (Enter /public/software/gauss/g16/l302.exe)
 NPDir=0 NMtPBC=     1 NCelOv=     1 NCel=       1 NClECP=     1 NCelD=      1
         NCelK=      1 NCelE2=     1 NClLst=     1 CellRange=     0.0.
 One-electron integrals computed using PRISM.
 One-electron integral symmetry used in STVInt
   1 Symmetry operations used in ECPInt.
 ECPInt:  NShTT=  486591 NPrTT= 1320950 LenC2=  267023 LenP2D=  487586.
 LDataN:  DoStor=T MaxTD1= 6 Len=  172
 Number of processors reduced to  60 by ecpmxn.
 NBasis=  2610 RedAO= T EigKep=  3.78D-06  NBF=  2610
 NBsUse=  2610 1.00D-06 EigRej= -1.00D+00 NBFU=  2610
 Precomputing XC quadrature grid using
 IXCGrd= 4 IRadAn=           5 IRanWt=          -1 IRanGd=           0 AccXCQ= 0.00D+00.
 Generated NRdTot=       0 NPtTot=           0 NUsed=           0 NTot=          32
 NSgBfM=  2592  2592  2592  2592  2592 MxSgAt=   116 MxSgA2=   116.
 Leave Link  302 at Fri Nov  7 06:32:57 2025, MaxMem= 30870077440 cpu:            1458.5 elap:              22.9
 (Enter /public/software/gauss/g16/l303.exe)
 DipDrv:  MaxL=1.
 Leave Link  303 at Fri Nov  7 06:32:58 2025, MaxMem= 30870077440 cpu:              50.6 elap:               0.9
 (Enter /public/software/gauss/g16/l401.exe)
 ExpMin= 6.06D-02 ExpMax= 3.55D+04 ExpMxC= 1.21D+03 IAcc=3 IRadAn=         5 AccDes= 0.00D+00
 Harris functional with IExCor= 1009 and IRadAn=       5 diagonalized for initial guess.
 HarFok:  IExCor= 1009 AccDes= 0.00D+00 IRadAn=         5 IDoV= 1 UseB2=F ITyADJ=14
 ICtDFT=  3500011 ScaDFX=  1.000000  1.000000  1.000000  1.000000
 FoFCou: FMM=F IPFlag=           0 FMFlag=      100000 FMFlg1=        2001
         NFxFlg=           0 DoJE=T BraDBF=F KetDBF=T FulRan=T
         wScrn=  0.000000 ICntrl=       500 IOpCl=  0 I1Cent=   200000004 NGrid=           0
         NMat0=    1 NMatS0=      1 NMatT0=    0 NMatD0=    1 NMtDS0=    0 NMtDT0=    0
 Petite list used in FoFCou.
 Harris En= -2478.77220795243    
 JPrj=0 DoOrth=F DoCkMO=F.
 Initial guess <Sx>= 0.0000 <Sy>= 0.0000 <Sz>= 0.5000 <S**2>= 0.7500 S= 0.5000
 Leave Link  401 at Fri Nov  7 06:33:20 2025, MaxMem= 30870077440 cpu:            1393.7 elap:              21.9
 (Enter /public/software/gauss/g16/l502.exe)
 Integral symmetry usage will be decided dynamically.
 UHF open shell SCF:
 Using DIIS extrapolation, IDIIS=  1040.
 NGot= 30870077440 LenX= 30852363488 LenY= 30843610766
 Requested convergence on RMS density matrix=1.00D-08 within 128 cycles.
 Requested convergence on MAX density matrix=1.00D-06.
 Requested convergence on             energy=1.00D-06.
 No special actions if energy rises.
 Fock matrices will be formed incrementally for  20 cycles.

 Cycle   1  Pass 1  IDiag  1:
 FoFJK:  IHMeth= 1 ICntrl=       0 DoSepK=F KAlg= 0 I1Cent=           0 FoldK=F
 IRaf= 500000000 NMat=       1 IRICut=       1 DoRegI=T DoRafI=F ISym2E= 0 IDoP0=0 IntGTp=1.
 FoFCou: FMM=T IPFlag=           0 FMFlag=      100000 FMFlg1=        2001
         NFxFlg=           0 DoJE=F BraDBF=F KetDBF=F FulRan=T
         wScrn=  0.000000 ICntrl=         0 IOpCl=  1 I1Cent=           0 NGrid=           0
         NMat0=    1 NMatS0=      1 NMatT0=    0 NMatD0=    1 NMtDS0=    0 NMtDT0=    0
 Symmetry not used in FoFCou.
 FMM levels:  10  Number of levels for PrismC:   9
 Inv3:  Mode=1 IEnd=   157513548.
 Iteration    1 A*A^-1 deviation from unit magnitude is 8.88D-15 for   7245.
 Iteration    1 A*A^-1 deviation from orthogonality  is 4.45D-15 for   4292    574.
 Iteration    1 A^-1*A deviation from unit magnitude is 8.88D-15 for   7245.
 Iteration    1 A^-1*A deviation from orthogonality  is 3.30D-14 for   7230   7213.
 E= -2478.07702109189    
 DIIS: error= 2.85D-02 at cycle   1 NSaved=   1.
 NSaved= 1 IEnMin= 1 EnMin= -2478.07702109189     IErMin= 1 ErrMin= 2.85D-02
 ErrMax= 2.85D-02  0.00D+00 EMaxC= 1.00D-01 BMatC= 7.89D+00 BMatP= 7.89D+00
 IDIUse=3 WtCom= 7.15D-01 WtEn= 2.85D-01
 Coeff-Com:  0.100D+01
 Coeff-En:   0.100D+01
 Coeff:      0.100D+01
 Gap=     0.134 Goal=   None    Shift=    0.000
 Gap=     0.133 Goal=   None    Shift=    0.000
 GapD=    0.133 DampG=1.000 DampE=0.500 DampFc=0.5000 IDamp=-1.
 Damping current iteration by 5.00D-01
 RMSDP=1.35D-03 MaxDP=3.02D-01              OVMax= 1.69D-01

 Cycle   2  Pass 1  IDiag  1:
 RMSU=  6.70D-04    CP:  9.74D-01
 E= -2478.95105037193     Delta-E=       -0.874029280041 Rises=F Damp=T
 DIIS: error= 4.64D-03 at cycle   2 NSaved=   2.
 NSaved= 2 IEnMin= 2 EnMin= -2478.95105037193     IErMin= 2 ErrMin= 4.64D-03
 ErrMax= 4.64D-03  0.00D+00 EMaxC= 1.00D-01 BMatC= 6.13D-01 BMatP= 7.89D+00
 IDIUse=3 WtCom= 9.54D-01 WtEn= 4.64D-02
 Coeff-Com: -0.153D+00 0.115D+01
 Coeff-En:   0.000D+00 0.100D+01
 Coeff:     -0.146D+00 0.115D+01
 Gap=     0.131 Goal=   None    Shift=    0.000
 Gap=     0.139 Goal=   None    Shift=    0.000
 RMSDP=6.11D-04 MaxDP=1.37D-01 DE=-8.74D-01 OVMax= 9.62D-02

 Cycle   3  Pass 1  IDiag  1:
 RMSU=  5.80D-04    CP:  9.65D-01  1.28D+00
 E= -2479.71208540113     Delta-E=       -0.761035029198 Rises=F Damp=F
 DIIS: error= 5.13D-03 at cycle   3 NSaved=   3.
 NSaved= 3 IEnMin= 3 EnMin= -2479.71208540113     IErMin= 2 ErrMin= 4.64D-03
 ErrMax= 5.13D-03  0.00D+00 EMaxC= 1.00D-01 BMatC= 1.73D-01 BMatP= 6.13D-01
 IDIUse=3 WtCom= 9.49D-01 WtEn= 5.13D-02
 Coeff-Com: -0.101D+00 0.412D+00 0.690D+00
 Coeff-En:   0.000D+00 0.000D+00 0.100D+01
 Coeff:     -0.961D-01 0.391D+00 0.706D+00
 Gap=     0.136 Goal=   None    Shift=    0.000
 Gap=     0.139 Goal=   None    Shift=    0.000
 RMSDP=1.40D-04 MaxDP=2.03D-02 DE=-7.61D-01 OVMax= 4.85D-02

 Cycle   4  Pass 1  IDiag  1:
 RMSU=  1.38D-04    CP:  9.63D-01  1.30D+00  9.56D-01
 E= -2479.73666954278     Delta-E=       -0.024584141654 Rises=F Damp=F
 DIIS: error= 3.91D-03 at cycle   4 NSaved=   4.
 NSaved= 4 IEnMin= 4 EnMin= -2479.73666954278     IErMin= 4 ErrMin= 3.91D-03
 ErrMax= 3.91D-03  0.00D+00 EMaxC= 1.00D-01 BMatC= 6.67D-02 BMatP= 1.73D-01
 IDIUse=3 WtCom= 9.61D-01 WtEn= 3.91D-02
 Coeff-Com: -0.358D-01 0.972D-01 0.412D+00 0.527D+00
 Coeff-En:   0.000D+00 0.000D+00 0.276D+00 0.724D+00
 Coeff:     -0.344D-01 0.934D-01 0.406D+00 0.535D+00
 Gap=     0.136 Goal=   None    Shift=    0.000
 Gap=     0.141 Goal=   None    Shift=    0.000
 RMSDP=6.18D-05 MaxDP=2.62D-02 DE=-2.46D-02 OVMax= 2.15D-02

 Cycle   5  Pass 1  IDiag  1:
 RMSU=  4.95D-05    CP:  9.62D-01  1.30D+00  9.80D-01  7.51D-01
 E= -2479.75084349625     Delta-E=       -0.014173953474 Rises=F Damp=F
 DIIS: error= 1.08D-03 at cycle   5 NSaved=   5.
 NSaved= 5 IEnMin= 5 EnMin= -2479.75084349625     IErMin= 5 ErrMin= 1.08D-03
 ErrMax= 1.08D-03  0.00D+00 EMaxC= 1.00D-01 BMatC= 3.06D-03 BMatP= 6.67D-02
 IDIUse=3 WtCom= 9.89D-01 WtEn= 1.08D-02
 Coeff-Com: -0.110D-01 0.234D-01 0.164D+00 0.268D+00 0.555D+00
 Coeff-En:   0.000D+00 0.000D+00 0.000D+00 0.000D+00 0.100D+01
 Coeff:     -0.109D-01 0.231D-01 0.162D+00 0.266D+00 0.560D+00
 Gap=     0.136 Goal=   None    Shift=    0.000
 Gap=     0.143 Goal=   None    Shift=    0.000
 RMSDP=2.00D-05 MaxDP=9.46D-03 DE=-1.42D-02 OVMax= 6.67D-03

 Cycle   6  Pass 1  IDiag  1:
 RMSU=  1.90D-05    CP:  9.62D-01  1.30D+00  9.81D-01  7.80D-01  1.04D+00
 E= -2479.75154346596     Delta-E=       -0.000699969702 Rises=F Damp=F
 DIIS: error= 2.66D-04 at cycle   6 NSaved=   6.
 NSaved= 6 IEnMin= 6 EnMin= -2479.75154346596     IErMin= 6 ErrMin= 2.66D-04
 ErrMax= 2.66D-04  0.00D+00 EMaxC= 1.00D-01 BMatC= 3.26D-04 BMatP= 3.06D-03
 IDIUse=3 WtCom= 9.97D-01 WtEn= 2.66D-03
 Coeff-Com: -0.365D-03-0.147D-02 0.231D-01 0.540D-01 0.257D+00 0.668D+00
 Coeff-En:   0.000D+00 0.000D+00 0.000D+00 0.000D+00 0.000D+00 0.100D+01
 Coeff:     -0.364D-03-0.147D-02 0.231D-01 0.539D-01 0.256D+00 0.669D+00
 Gap=     0.137 Goal=   None    Shift=    0.000
 Gap=     0.144 Goal=   None    Shift=    0.000
 RMSDP=1.42D-05 MaxDP=1.13D-02 DE=-7.00D-04 OVMax= 5.38D-03

 Cycle   7  Pass 1  IDiag  1:
 RMSU=  8.47D-06    CP:  9.62D-01  1.31D+00  9.84D-01  8.05D-01  1.23D+00
                    CP:  1.26D+00
 E= -2479.75167302242     Delta-E=       -0.000129556467 Rises=F Damp=F
 DIIS: error= 9.28D-05 at cycle   7 NSaved=   7.
 NSaved= 7 IEnMin= 7 EnMin= -2479.75167302242     IErMin= 7 ErrMin= 9.28D-05
 ErrMax= 9.28D-05  0.00D+00 EMaxC= 1.00D-01 BMatC= 6.86D-05 BMatP= 3.26D-04
 IDIUse=1 WtCom= 1.00D+00 WtEn= 0.00D+00
 Coeff-Com:  0.228D-02-0.568D-02-0.276D-01-0.394D-01-0.250D-01 0.264D+00
 Coeff-Com:  0.831D+00
 Coeff:      0.228D-02-0.568D-02-0.276D-01-0.394D-01-0.250D-01 0.264D+00
 Coeff:      0.831D+00
 Gap=     0.138 Goal=   None    Shift=    0.000
 Gap=     0.145 Goal=   None    Shift=    0.000
 RMSDP=1.18D-05 MaxDP=8.27D-03 DE=-1.30D-04 OVMax= 4.04D-03

 Cycle   8  Pass 1  IDiag  1:
 RMSU=  3.99D-06    CP:  9.63D-01  1.31D+00  9.88D-01  8.25D-01  1.38D+00
                    CP:  1.59D+00  1.51D+00
 E= -2479.75172856277     Delta-E=       -0.000055540346 Rises=F Damp=F
 DIIS: error= 3.69D-05 at cycle   8 NSaved=   8.
 NSaved= 8 IEnMin= 8 EnMin= -2479.75172856277     IErMin= 8 ErrMin= 3.69D-05
 ErrMax= 3.69D-05  0.00D+00 EMaxC= 1.00D-01 BMatC= 2.13D-05 BMatP= 6.86D-05
 IDIUse=1 WtCom= 1.00D+00 WtEn= 0.00D+00
 Coeff-Com:  0.998D-03-0.177D-02-0.188D-01-0.341D-01-0.936D-01-0.105D+00
 Coeff-Com:  0.358D+00 0.895D+00
 Coeff:      0.998D-03-0.177D-02-0.188D-01-0.341D-01-0.936D-01-0.105D+00
 Coeff:      0.358D+00 0.895D+00
 Gap=     0.139 Goal=   None    Shift=    0.000
 Gap=     0.146 Goal=   None    Shift=    0.000
 RMSDP=9.25D-06 MaxDP=7.21D-03 DE=-5.55D-05 OVMax= 3.47D-03

 Cycle   9  Pass 1  IDiag  1:
 RMSU=  2.27D-06    CP:  9.63D-01  1.31D+00  9.91D-01  8.39D-01  1.49D+00
                    CP:  1.84D+00  2.03D+00  1.45D+00
 E= -2479.75175070762     Delta-E=       -0.000022144854 Rises=F Damp=F
 DIIS: error= 1.98D-05 at cycle   9 NSaved=   9.
 NSaved= 9 IEnMin= 9 EnMin= -2479.75175070762     IErMin= 9 ErrMin= 1.98D-05
 ErrMax= 1.98D-05  0.00D+00 EMaxC= 1.00D-01 BMatC= 4.23D-06 BMatP= 2.13D-05
 IDIUse=1 WtCom= 1.00D+00 WtEn= 0.00D+00
 Coeff-Com: -0.311D-03 0.947D-03 0.133D-02-0.752D-03-0.243D-01-0.106D+00
 Coeff-Com: -0.110D+00 0.286D+00 0.952D+00
 Coeff:     -0.311D-03 0.947D-03 0.133D-02-0.752D-03-0.243D-01-0.106D+00
 Coeff:     -0.110D+00 0.286D+00 0.952D+00
 Gap=     0.139 Goal=   None    Shift=    0.000
 Gap=     0.146 Goal=   None    Shift=    0.000
 RMSDP=4.62D-06 MaxDP=3.29D-03 DE=-2.21D-05 OVMax= 1.78D-03

 Cycle  10  Pass 1  IDiag  1:
 RMSU=  9.61D-07    CP:  9.63D-01  1.31D+00  9.92D-01  8.44D-01  1.54D+00
                    CP:  1.97D+00  2.27D+00  1.86D+00  1.38D+00
 E= -2479.75175562375     Delta-E=       -0.000004916132 Rises=F Damp=F
 DIIS: error= 6.35D-06 at cycle  10 NSaved=  10.
 NSaved=10 IEnMin=10 EnMin= -2479.75175562375     IErMin=10 ErrMin= 6.35D-06
 ErrMax= 6.35D-06  0.00D+00 EMaxC= 1.00D-01 BMatC= 8.44D-07 BMatP= 4.23D-06
 IDIUse=1 WtCom= 1.00D+00 WtEn= 0.00D+00
 Coeff-Com: -0.308D-03 0.719D-03 0.417D-02 0.640D-02 0.935D-02-0.164D-01
 Coeff-Com: -0.105D+00-0.723D-01 0.336D+00 0.837D+00
 Coeff:     -0.308D-03 0.719D-03 0.417D-02 0.640D-02 0.935D-02-0.164D-01
 Coeff:     -0.105D+00-0.723D-01 0.336D+00 0.837D+00
 Gap=     0.139 Goal=   None    Shift=    0.000
 Gap=     0.146 Goal=   None    Shift=    0.000
 RMSDP=1.44D-06 MaxDP=1.07D-03 DE=-4.92D-06 OVMax= 7.24D-04

 Cycle  11  Pass 1  IDiag  1:
 RMSU=  4.74D-07    CP:  9.63D-01  1.31D+00  9.92D-01  8.45D-01  1.55D+00
                    CP:  2.00D+00  2.36D+00  1.97D+00  1.59D+00  1.33D+00
 E= -2479.75175642307     Delta-E=       -0.000000799315 Rises=F Damp=F
 DIIS: error= 5.33D-06 at cycle  11 NSaved=  11.
 NSaved=11 IEnMin=11 EnMin= -2479.75175642307     IErMin=11 ErrMin= 5.33D-06
 ErrMax= 5.33D-06  0.00D+00 EMaxC= 1.00D-01 BMatC= 2.08D-07 BMatP= 8.44D-07
 IDIUse=1 WtCom= 1.00D+00 WtEn= 0.00D+00
 Coeff-Com: -0.720D-04 0.142D-03 0.150D-02 0.271D-02 0.704D-02 0.807D-02
 Coeff-Com: -0.279D-01-0.674D-01-0.345D-02 0.337D+00 0.743D+00
 Coeff:     -0.720D-04 0.142D-03 0.150D-02 0.271D-02 0.704D-02 0.807D-02
 Coeff:     -0.279D-01-0.674D-01-0.345D-02 0.337D+00 0.743D+00
 Gap=     0.139 Goal=   None    Shift=    0.000
 Gap=     0.146 Goal=   None    Shift=    0.000
 RMSDP=4.17D-07 MaxDP=1.61D-04 DE=-7.99D-07 OVMax= 3.69D-04

 Cycle  12  Pass 1  IDiag  1:
 RMSU=  2.55D-07    CP:  9.63D-01  1.31D+00  9.92D-01  8.45D-01  1.55D+00
                    CP:  2.00D+00  2.37D+00  2.00D+00  1.65D+00  1.52D+00
                    CP:  1.27D+00
 E= -2479.75175664413     Delta-E=       -0.000000221062 Rises=F Damp=F
 DIIS: error= 3.45D-06 at cycle  12 NSaved=  12.
 NSaved=12 IEnMin=12 EnMin= -2479.75175664413     IErMin=12 ErrMin= 3.45D-06
 ErrMax= 3.45D-06  0.00D+00 EMaxC= 1.00D-01 BMatC= 7.60D-08 BMatP= 2.08D-07
 IDIUse=1 WtCom= 1.00D+00 WtEn= 0.00D+00
 Coeff-Com:  0.756D-04-0.182D-03-0.769D-03-0.109D-02-0.485D-03 0.752D-02
 Coeff-Com:  0.206D-01 0.125D-02-0.107D+00-0.129D+00 0.294D+00 0.915D+00
 Coeff:      0.756D-04-0.182D-03-0.769D-03-0.109D-02-0.485D-03 0.752D-02
 Coeff:      0.206D-01 0.125D-02-0.107D+00-0.129D+00 0.294D+00 0.915D+00
 Gap=     0.139 Goal=   None    Shift=    0.000
 Gap=     0.146 Goal=   None    Shift=    0.000
 RMSDP=3.97D-07 MaxDP=2.39D-04 DE=-2.21D-07 OVMax= 3.36D-04

 Cycle  13  Pass 1  IDiag  1:
 RMSU=  1.61D-07    CP:  9.63D-01  1.31D+00  9.92D-01  8.45D-01  1.56D+00
                    CP:  2.01D+00  2.38D+00  2.00D+00  1.70D+00  1.68D+00
                    CP:  1.76D+00  1.41D+00
 E= -2479.75175677448     Delta-E=       -0.000000130349 Rises=F Damp=F
 DIIS: error= 2.12D-06 at cycle  13 NSaved=  13.
 NSaved=13 IEnMin=13 EnMin= -2479.75175677448     IErMin=13 ErrMin= 2.12D-06
 ErrMax= 2.12D-06  0.00D+00 EMaxC= 1.00D-01 BMatC= 2.78D-08 BMatP= 7.60D-08
 IDIUse=1 WtCom= 1.00D+00 WtEn= 0.00D+00
 Coeff-Com:  0.553D-04-0.121D-03-0.863D-03-0.150D-02-0.280D-02-0.311D-04
 Coeff-Com:  0.175D-01 0.282D-01-0.422D-01-0.180D+00-0.165D+00 0.366D+00
 Coeff-Com:  0.981D+00
 Coeff:      0.553D-04-0.121D-03-0.863D-03-0.150D-02-0.280D-02-0.311D-04
 Coeff:      0.175D-01 0.282D-01-0.422D-01-0.180D+00-0.165D+00 0.366D+00
 Coeff:      0.981D+00
 Gap=     0.139 Goal=   None    Shift=    0.000
 Gap=     0.146 Goal=   None    Shift=    0.000
 RMSDP=2.84D-07 MaxDP=6.90D-05 DE=-1.30D-07 OVMax= 2.95D-04

 Cycle  14  Pass 1  IDiag  1:
 RMSU=  7.60D-08    CP:  9.63D-01  1.31D+00  9.92D-01  8.45D-01  1.56D+00
                    CP:  2.01D+00  2.38D+00  2.01D+00  1.72D+00  1.80D+00
                    CP:  2.07D+00  2.00D+00  1.62D+00
 E= -2479.75175683589     Delta-E=       -0.000000061411 Rises=F Damp=F
 DIIS: error= 1.04D-06 at cycle  14 NSaved=  14.
 NSaved=14 IEnMin=14 EnMin= -2479.75175683589     IErMin=14 ErrMin= 1.04D-06
 ErrMax= 1.04D-06  0.00D+00 EMaxC= 1.00D-01 BMatC= 8.22D-09 BMatP= 2.78D-08
 IDIUse=1 WtCom= 1.00D+00 WtEn= 0.00D+00
 Coeff-Com: -0.146D-04 0.369D-04 0.312D-04-0.773D-04-0.695D-03-0.283D-02
 Coeff-Com: -0.339D-02 0.869D-02 0.288D-01-0.105D-01-0.169D+00-0.233D+00
 Coeff-Com:  0.305D+00 0.108D+01
 Coeff:     -0.146D-04 0.369D-04 0.312D-04-0.773D-04-0.695D-03-0.283D-02
 Coeff:     -0.339D-02 0.869D-02 0.288D-01-0.105D-01-0.169D+00-0.233D+00
 Coeff:      0.305D+00 0.108D+01
 Gap=     0.139 Goal=   None    Shift=    0.000
 Gap=     0.146 Goal=   None    Shift=    0.000
 RMSDP=2.21D-07 MaxDP=1.22D-04 DE=-6.14D-08 OVMax= 1.74D-04

 Cycle  15  Pass 1  IDiag  1:
 RMSU=  4.54D-08    CP:  9.63D-01  1.31D+00  9.92D-01  8.45D-01  1.56D+00
                    CP:  2.01D+00  2.39D+00  2.01D+00  1.74D+00  1.86D+00
                    CP:  2.27D+00  2.36D+00  2.29D+00  1.62D+00
 E= -2479.75175685572     Delta-E=       -0.000000019827 Rises=F Damp=F
 DIIS: error= 4.27D-07 at cycle  15 NSaved=  15.
 NSaved=15 IEnMin=15 EnMin= -2479.75175685572     IErMin=15 ErrMin= 4.27D-07
 ErrMax= 4.27D-07  0.00D+00 EMaxC= 1.00D-01 BMatC= 2.50D-09 BMatP= 8.22D-09
 IDIUse=1 WtCom= 1.00D+00 WtEn= 0.00D+00
 Coeff-Com: -0.198D-04 0.455D-04 0.233D-03 0.345D-03 0.369D-03-0.124D-02
 Coeff-Com: -0.623D-02-0.353D-02 0.240D-01 0.426D-01-0.261D-01-0.190D+00
 Coeff-Com: -0.147D+00 0.485D+00 0.821D+00
 Coeff:     -0.198D-04 0.455D-04 0.233D-03 0.345D-03 0.369D-03-0.124D-02
 Coeff:     -0.623D-02-0.353D-02 0.240D-01 0.426D-01-0.261D-01-0.190D+00
 Coeff:     -0.147D+00 0.485D+00 0.821D+00
 Gap=     0.139 Goal=   None    Shift=    0.000
 Gap=     0.146 Goal=   None    Shift=    0.000
 RMSDP=8.11D-08 MaxDP=3.55D-05 DE=-1.98D-08 OVMax= 5.38D-05

 Cycle  16  Pass 1  IDiag  1:
 RMSU=  2.03D-08    CP:  9.63D-01  1.31D+00  9.92D-01  8.45D-01  1.56D+00
                    CP:  2.01D+00  2.39D+00  2.02D+00  1.74D+00  1.88D+00
                    CP:  2.32D+00  2.51D+00  2.50D+00  2.03D+00  1.32D+00
 E= -2479.75175685876     Delta-E=       -0.000000003038 Rises=F Damp=F
 DIIS: error= 1.58D-07 at cycle  16 NSaved=  16.
 NSaved=16 IEnMin=16 EnMin= -2479.75175685876     IErMin=16 ErrMin= 1.58D-07
 ErrMax= 1.58D-07  0.00D+00 EMaxC= 1.00D-01 BMatC= 4.48D-10 BMatP= 2.50D-09
 IDIUse=1 WtCom= 1.00D+00 WtEn= 0.00D+00
 Coeff-Com: -0.255D-05 0.572D-05 0.660D-04 0.124D-03 0.243D-03 0.228D-03
 Coeff-Com: -0.122D-02-0.312D-02 0.996D-03 0.163D-01 0.312D-01-0.265D-02
 Coeff-Com: -0.124D+00-0.850D-01 0.269D+00 0.898D+00
 Coeff:     -0.255D-05 0.572D-05 0.660D-04 0.124D-03 0.243D-03 0.228D-03
 Coeff:     -0.122D-02-0.312D-02 0.996D-03 0.163D-01 0.312D-01-0.265D-02
 Coeff:     -0.124D+00-0.850D-01 0.269D+00 0.898D+00
 Gap=     0.139 Goal=   None    Shift=    0.000
 Gap=     0.146 Goal=   None    Shift=    0.000
 RMSDP=3.14D-08 MaxDP=1.89D-05 DE=-3.04D-09 OVMax= 1.96D-05

 Cycle  17  Pass 1  IDiag  1:
 RMSU=  1.11D-08    CP:  9.63D-01  1.31D+00  9.92D-01  8.45D-01  1.56D+00
                    CP:  2.01D+00  2.39D+00  2.02D+00  1.74D+00  1.89D+00
                    CP:  2.33D+00  2.53D+00  2.58D+00  2.16D+00  1.57D+00
                    CP:  1.47D+00
 E= -2479.75175685906     Delta-E=       -0.000000000309 Rises=F Damp=F
 DIIS: error= 8.17D-08 at cycle  17 NSaved=  17.
 NSaved=17 IEnMin=17 EnMin= -2479.75175685906     IErMin=17 ErrMin= 8.17D-08
 ErrMax= 8.17D-08  0.00D+00 EMaxC= 1.00D-01 BMatC= 1.33D-10 BMatP= 4.48D-10
 IDIUse=1 WtCom= 1.00D+00 WtEn= 0.00D+00
 Coeff-Com:  0.296D-05-0.676D-05-0.166D-04-0.112D-04 0.356D-04 0.358D-03
 Coeff-Com:  0.783D-03-0.693D-03-0.464D-02-0.172D-02 0.192D-01 0.407D-01
 Coeff-Com: -0.228D-01-0.139D+00-0.657D-01 0.400D+00 0.773D+00
 Coeff:      0.296D-05-0.676D-05-0.166D-04-0.112D-04 0.356D-04 0.358D-03
 Coeff:      0.783D-03-0.693D-03-0.464D-02-0.172D-02 0.192D-01 0.407D-01
 Coeff:     -0.228D-01-0.139D+00-0.657D-01 0.400D+00 0.773D+00
 Gap=     0.139 Goal=   None    Shift=    0.000
 Gap=     0.146 Goal=   None    Shift=    0.000
 RMSDP=1.14D-08 MaxDP=2.36D-06 DE=-3.09D-10 OVMax= 7.93D-06

 Cycle  18  Pass 1  IDiag  1:
 RMSU=  4.74D-09    CP:  9.63D-01  1.31D+00  9.92D-01  8.45D-01  1.56D+00
                    CP:  2.01D+00  2.39D+00  2.02D+00  1.74D+00  1.89D+00
                    CP:  2.33D+00  2.54D+00  2.58D+00  2.21D+00  1.67D+00
                    CP:  1.80D+00  1.35D+00
 E= -2479.75175685885     Delta-E=        0.000000000213 Rises=F Damp=F
 DIIS: error= 5.45D-08 at cycle  18 NSaved=  18.
 NSaved=18 IEnMin=17 EnMin= -2479.75175685906     IErMin=18 ErrMin= 5.45D-08
 ErrMax= 5.45D-08  0.00D+00 EMaxC= 1.00D-01 BMatC= 2.75D-11 BMatP= 1.33D-10
 IDIUse=1 WtCom= 1.00D+00 WtEn= 0.00D+00
 Coeff-Com:  0.143D-05-0.329D-05-0.191D-04-0.282D-04-0.380D-04 0.585D-04
 Coeff-Com:  0.534D-03 0.427D-03-0.162D-02-0.392D-02-0.101D-02 0.129D-01
 Coeff-Com:  0.195D-01-0.243D-01-0.803D-01-0.607D-01 0.245D+00 0.894D+00
 Coeff:      0.143D-05-0.329D-05-0.191D-04-0.282D-04-0.380D-04 0.585D-04
 Coeff:      0.534D-03 0.427D-03-0.162D-02-0.392D-02-0.101D-02 0.129D-01
 Coeff:      0.195D-01-0.243D-01-0.803D-01-0.607D-01 0.245D+00 0.894D+00
 Gap=     0.139 Goal=   None    Shift=    0.000
 Gap=     0.146 Goal=   None    Shift=    0.000
 RMSDP=7.10D-09 MaxDP=1.51D-06 DE= 2.13D-10 OVMax= 5.42D-06

 Cycle  19  Pass 1  IDiag  1:
 RMSU=  2.81D-09    CP:  9.63D-01  1.31D+00  9.92D-01  8.45D-01  1.56D+00
                    CP:  2.01D+00  2.39D+00  2.02D+00  1.74D+00  1.89D+00
                    CP:  2.33D+00  2.54D+00  2.59D+00  2.23D+00  1.72D+00
                    CP:  1.96D+00  1.68D+00  1.62D+00
 E= -2479.75175685923     Delta-E=       -0.000000000375 Rises=F Damp=F
 DIIS: error= 3.97D-08 at cycle  19 NSaved=  19.
 NSaved=19 IEnMin=19 EnMin= -2479.75175685923     IErMin=19 ErrMin= 3.97D-08
 ErrMax= 3.97D-08  0.00D+00 EMaxC= 1.00D-01 BMatC= 8.59D-12 BMatP= 2.75D-11
 IDIUse=1 WtCom= 1.00D+00 WtEn= 0.00D+00
 Coeff-Com: -0.551D-06 0.117D-05 0.910D-07-0.245D-05-0.154D-04-0.892D-04
 Coeff-Com: -0.929D-04 0.280D-03 0.930D-03-0.389D-03-0.534D-02-0.830D-02
 Coeff-Com:  0.116D-01 0.316D-01-0.183D-02-0.127D+00-0.175D+00 0.219D+00
 Coeff-Com:  0.106D+01
 Coeff:     -0.551D-06 0.117D-05 0.910D-07-0.245D-05-0.154D-04-0.892D-04
 Coeff:     -0.929D-04 0.280D-03 0.930D-03-0.389D-03-0.534D-02-0.830D-02
 Coeff:      0.116D-01 0.316D-01-0.183D-02-0.127D+00-0.175D+00 0.219D+00
 Coeff:      0.106D+01
 Gap=     0.139 Goal=   None    Shift=    0.000
 Gap=     0.146 Goal=   None    Shift=    0.000
 RMSDP=5.89D-09 MaxDP=1.52D-06 DE=-3.75D-10 OVMax= 4.72D-06

 Cycle  20  Pass 1  IDiag  1:
 RMSU=  1.54D-09    CP:  9.63D-01  1.31D+00  9.92D-01  8.45D-01  1.56D+00
                    CP:  2.01D+00  2.39D+00  2.02D+00  1.74D+00  1.89D+00
                    CP:  2.33D+00  2.54D+00  2.59D+00  2.23D+00  1.74D+00
                    CP:  2.07D+00  1.92D+00  2.26D+00  1.76D+00
 E= -2479.75175685920     Delta-E=        0.000000000024 Rises=F Damp=F
 DIIS: error= 2.32D-08 at cycle  20 NSaved=  20.
 NSaved=20 IEnMin=19 EnMin= -2479.75175685923     IErMin=20 ErrMin= 2.32D-08
 ErrMax= 2.32D-08  0.00D+00 EMaxC= 1.00D-01 BMatC= 3.30D-12 BMatP= 8.59D-12
 IDIUse=1 WtCom= 1.00D+00 WtEn= 0.00D+00
 Coeff-Com: -0.667D-06 0.150D-05 0.571D-05 0.748D-05 0.541D-05-0.552D-04
 Coeff-Com: -0.197D-03-0.127D-05 0.877D-03 0.947D-03-0.191D-02-0.781D-02
 Coeff-Com: -0.924D-03 0.210D-01 0.258D-01-0.339D-01-0.155D+00-0.192D+00
 Coeff-Com:  0.464D+00 0.879D+00
 Coeff:     -0.667D-06 0.150D-05 0.571D-05 0.748D-05 0.541D-05-0.552D-04
 Coeff:     -0.197D-03-0.127D-05 0.877D-03 0.947D-03-0.191D-02-0.781D-02
 Coeff:     -0.924D-03 0.210D-01 0.258D-01-0.339D-01-0.155D+00-0.192D+00
 Coeff:      0.464D+00 0.879D+00
 Gap=     0.139 Goal=   None    Shift=    0.000
 Gap=     0.146 Goal=   None    Shift=    0.000
 RMSDP=3.56D-09 MaxDP=8.57D-07 DE= 2.36D-11 OVMax= 2.99D-06

 Error on total polarization charges =  0.03074
 SCF Done:  E(UM062X) =  -2479.75175686     A.U. after   20 cycles
            NFock= 20  Conv=0.36D-08     -V/T= 2.0057
 <Sx>= 0.0000 <Sy>= 0.0000 <Sz>= 0.5000 <S**2>= 0.7894 S= 0.5195
 <L.S>= 0.000000000000E+00
 KE= 2.465673774801D+03 PE=-2.129608870101D+04 EE= 8.606912882660D+03
 Annihilation of the first spin contaminant:
 S**2 before annihilation     0.7894,   after     0.7512
 Leave Link  502 at Fri Nov  7 07:38:34 2025, MaxMem= 30870077440 cpu:          247450.2 elap:            3914.6
 (Enter /public/software/gauss/g16/l601.exe)
 Copying SCF densities to generalized density rwf, IOpCl= 1 IROHF=0.
 Hyperfine terms turned off by default for NAtoms > 100.

 **********************************************************************

            Population analysis using the SCF density.

 **********************************************************************

 Orbital symmetries:
 Alpha Orbitals:
       Occupied  (A) (A) (A) (A) (A) (A) (A) (A) (A) (A) (A) (A)
                 (A) (A) (A) (A) (A) (A) (A) (A) (A) (A) (A) (A)
                 (A) (A) (A) (A) (A) (A) (A) (A) (A) (A) (A) (A)
                 (A) (A) (A) (A) (A) (A) (A) (A) (A) (A) (A) (A)
                 (A) (A) (A) (A) (A) (A) (A) (A) (A) (A) (A) (A)
                 (A) (A) (A) (A) (A) (A) (A) (A) (A) (A) (A) (A)
                 (A) (A) (A) (A) (A) (A) (A) (A) (A) (A) (A) (A)
                 (A) (A) (A) (A) (A) (A) (A) (A) (A) (A) (A) (A)
                 (A) (A) (A) (A) (A) (A) (A) (A) (A) (A) (A) (A)
                 (A) (A) (A) (A) (A) (A) (A) (A) (A) (A) (A) (A)
                 (A) (A) (A) (A) (A) (A) (A) (A) (A) (A) (A) (A)
                 (A) (A) (A) (A) (A) (A) (A) (A) (A) (A) (A) (A)
                 (A) (A) (A) (A) (A) (A) (A) (A) (A) (A) (A) (A)
                 (A) (A) (A) (A) (A) (A) (A) (A) (A) (A) (A) (A)
                 (A) (A) (A) (A) (A) (A) (A) (A) (A) (A) (A) (A)
                 (A) (A) (A) (A) (A) (A) (A) (A) (A) (A) (A) (A)
                 (A) (A) (A) (A) (A) (A) (A) (A) (A) (A) (A) (A)
                 (A) (A) (A) (A) (A) (A)
       Virtual   (A) (A) (A) (A) (A) (A) (A) (A) (A) (A) (A) (A)
                 (A) (A) (A) (A) (A) (A) (A) (A) (A) (A) (A) (A)
                 (A) (A) (A) (A) (A) (A) (A) (A) (A) (A) (A) (A)
                 (A) (A) (A) (A) (A) (A) (A) (A) (A) (A) (A) (A)
                 (A) (A) (A) (A) (A) (A) (A) (A) (A) (A) (A) (A)
                 (A) (A) (A) (A) (A) (A) (A) (A) (A) (A) (A) (A)
                 (A) (A) (A) (A) (A) (A) (A) (A) (A) (A) (A) (A)
                 (A) (A) (A) (A) (A) (A) (A) (A) (A) (A) (A) (A)
                 (A) (A) (A) (A) (A) (A) (A) (A) (A) (A) (A) (A)
                 (A) (A) (A) (A) (A) (A) (A) (A) (A) (A) (A) (A)
                 (A) (A) (A) (A) (A) (A) (A) (A) (A) (A) (A) (A)
                 (A) (A) (A) (A) (A) (A) (A) (A) (A) (A) (A) (A)
                 (A) (A) (A) (A) (A) (A) (A) (A) (A) (A) (A) (A)
                 (A) (A) (A) (A) (A) (A) (A) (A) (A) (A) (A) (A)
                 (A) (A) (A) (A) (A) (A) (A) (A) (A) (A) (A) (A)
                 (A) (A) (A) (A) (A) (A) (A) (A) (A) (A) (A) (A)
                 (A) (A) (A) (A) (A) (A) (A) (A) (A) (A) (A) (A)
                 (A) (A) (A) (A) (A) (A) (A) (A) (A) (A) (A) (A)
                 (A) (A) (A) (A) (A) (A) (A) (A) (A) (A) (A) (A)
                 (A) (A) (A) (A) (A) (A) (A) (A) (A) (A) (A) (A)
                 (A) (A) (A) (A) (A) (A) (A) (A) (A) (A) (A) (A)
                 (A) (A) (A) (A) (A) (A) (A) (A) (A) (A) (A) (A)
                 (A) (A) (A) (A) (A) (A) (A) (A) (A) (A) (A) (A)
                 (A) (A) (A) (A) (A) (A) (A) (A) (A) (A) (A) (A)
                 (A) (A) (A) (A) (A) (A) (A) (A) (A) (A) (A) (A)
                 (A) (A) (A) (A) (A) (A) (A) (A) (A) (A) (A) (A)
                 (A) (A) (A) (A) (A) (A) (A) (A) (A) (A) (A) (A)
                 (A) (A) (A) (A) (A) (A) (A) (A) (A) (A) (A) (A)
                 (A) (A) (A) (A) (A) (A) (A) (A) (A) (A) (A) (A)
                 (A) (A) (A) (A) (A) (A) (A) (A) (A) (A) (A) (A)
                 (A) (A) (A) (A) (A) (A) (A) (A) (A) (A) (A) (A)
                 (A) (A) (A) (A) (A) (A) (A) (A) (A) (A) (A) (A)
                 (A) (A) (A) (A) (A) (A) (A) (A) (A) (A) (A) (A)
                 (A) (A) (A) (A) (A) (A) (A) (A) (A) (A) (A) (A)
                 (A) (A) (A) (A) (A) (A) (A) (A) (A) (A) (A) (A)
                 (A) (A) (A) (A) (A) (A) (A) (A) (A) (A) (A) (A)
                 (A) (A) (A) (A) (A) (A) (A) (A) (A) (A) (A) (A)
                 (A) (A) (A) (A) (A) (A) (A) (A) (A) (A) (A) (A)
                 (A) (A) (A) (A) (A) (A) (A) (A) (A) (A) (A) (A)
                 (A) (A) (A) (A) (A) (A) (A) (A) (A) (A) (A) (A)
                 (A) (A) (A) (A) (A) (A) (A) (A) (A) (A) (A) (A)
                 (A) (A) (A) (A) (A) (A) (A) (A) (A) (A) (A) (A)
                 (A) (A) (A) (A) (A) (A) (A) (A) (A) (A) (A) (A)
                 (A) (A) (A) (A) (A) (A) (A) (A) (A) (A) (A) (A)
                 (A) (A) (A) (A) (A) (A) (A) (A) (A) (A) (A) (A)
                 (A) (A) (A) (A) (A) (A) (A) (A) (A) (A) (A) (A)
                 (A) (A) (A) (A) (A) (A) (A) (A) (A) (A) (A) (A)
                 (A) (A) (A) (A) (A) (A) (A) (A) (A) (A) (A) (A)
                 (A) (A) (A) (A) (A) (A) (A) (A) (A) (A) (A) (A)
                 (A) (A) (A) (A) (A) (A) (A) (A) (A) (A) (A) (A)
                 (A) (A) (A) (A) (A) (A) (A) (A) (A) (A) (A) (A)
                 (A) (A) (A) (A) (A) (A) (A) (A) (A) (A) (A) (A)
                 (A) (A) (A) (A) (A) (A) (A) (A) (A) (A) (A) (A)
                 (A) (A) (A) (A) (A) (A) (A) (A) (A) (A) (A) (A)
                 (A) (A) (A) (A) (A) (A) (A) (A) (A) (A) (A) (A)
                 (A) (A) (A) (A) (A) (A) (A) (A) (A) (A) (A) (A)
                 (A) (A) (A) (A) (A) (A) (A) (A) (A) (A) (A) (A)
                 (A) (A) (A) (A) (A) (A) (A) (A) (A) (A) (A) (A)
                 (A) (A) (A) (A) (A) (A) (A) (A) (A) (A) (A) (A)
                 (A) (A) (A) (A) (A) (A) (A) (A) (A) (A) (A) (A)
                 (A) (A) (A) (A) (A) (A) (A) (A) (A) (A) (A) (A)
                 (A) (A) (A) (A) (A) (A) (A) (A) (A) (A) (A) (A)
                 (A) (A) (A) (A) (A) (A) (A) (A) (A) (A) (A) (A)
                 (A) (A) (A) (A) (A) (A) (A) (A) (A) (A) (A) (A)
                 (A) (A) (A) (A) (A) (A) (A) (A) (A) (A) (A) (A)
                 (A) (A) (A) (A) (A) (A) (A) (A) (A) (A) (A) (A)
                 (A) (A) (A) (A) (A) (A) (A) (A) (A) (A) (A) (A)
                 (A) (A) (A) (A) (A) (A) (A) (A) (A) (A) (A) (A)
                 (A) (A) (A) (A) (A) (A) (A) (A) (A) (A) (A) (A)
                 (A) (A) (A) (A) (A) (A) (A) (A) (A) (A) (A) (A)
                 (A) (A) (A) (A) (A) (A) (A) (A) (A) (A) (A) (A)
                 (A) (A) (A) (A) (A) (A) (A) (A) (A) (A) (A) (A)
                 (A) (A) (A) (A) (A) (A) (A) (A) (A) (A) (A) (A)
                 (A) (A) (A) (A) (A) (A) (A) (A) (A) (A) (A) (A)
                 (A) (A) (A) (A) (A) (A) (A) (A) (A) (A) (A) (A)
                 (A) (A) (A) (A) (A) (A) (A) (A) (A) (A) (A) (A)
                 (A) (A) (A) (A) (A) (A) (A) (A) (A) (A) (A) (A)
                 (A) (A) (A) (A) (A) (A) (A) (A) (A) (A) (A) (A)
                 (A) (A) (A) (A) (A) (A) (A) (A) (A) (A) (A) (A)
                 (A) (A) (A) (A) (A) (A) (A) (A) (A) (A) (A) (A)
                 (A) (A) (A) (A) (A) (A) (A) (A) (A) (A) (A) (A)
                 (A) (A) (A) (A) (A) (A) (A) (A) (A) (A) (A) (A)
                 (A) (A) (A) (A) (A) (A) (A) (A) (A) (A) (A) (A)
                 (A) (A) (A) (A) (A) (A) (A) (A) (A) (A) (A) (A)
                 (A) (A) (A) (A) (A) (A) (A) (A) (A) (A) (A) (A)
                 (A) (A) (A) (A) (A) (A) (A) (A) (A) (A) (A) (A)
                 (A) (A) (A) (A) (A) (A) (A) (A) (A) (A) (A) (A)
                 (A) (A) (A) (A) (A) (A) (A) (A) (A) (A) (A) (A)
                 (A) (A) (A) (A) (A) (A) (A) (A) (A) (A) (A) (A)
                 (A) (A) (A) (A) (A) (A) (A) (A) (A) (A) (A) (A)
                 (A) (A) (A) (A) (A) (A) (A) (A) (A) (A) (A) (A)
                 (A) (A) (A) (A) (A) (A) (A) (A) (A) (A) (A) (A)
                 (A) (A) (A) (A) (A) (A) (A) (A) (A) (A) (A) (A)
                 (A) (A) (A) (A) (A) (A) (A) (A) (A) (A) (A) (A)
                 (A) (A) (A) (A) (A) (A) (A) (A) (A) (A) (A) (A)
                 (A) (A) (A) (A) (A) (A) (A) (A) (A) (A) (A) (A)
                 (A) (A) (A) (A) (A) (A) (A) (A) (A) (A) (A) (A)
                 (A) (A) (A) (A) (A) (A) (A) (A) (A) (A) (A) (A)
                 (A) (A) (A) (A) (A) (A) (A) (A) (A) (A) (A) (A)
                 (A) (A) (A) (A) (A) (A) (A) (A) (A) (A) (A) (A)
                 (A) (A) (A) (A) (A) (A) (A) (A) (A) (A) (A) (A)
                 (A) (A) (A) (A) (A) (A) (A) (A) (A) (A) (A) (A)
                 (A) (A) (A) (A) (A) (A) (A) (A) (A) (A) (A) (A)
                 (A) (A) (A) (A) (A) (A) (A) (A) (A) (A) (A) (A)
                 (A) (A) (A) (A) (A) (A) (A) (A) (A) (A) (A) (A)
                 (A) (A) (A) (A) (A) (A) (A) (A) (A) (A) (A) (A)
                 (A) (A) (A) (A) (A) (A) (A) (A) (A) (A) (A) (A)
                 (A) (A) (A) (A) (A) (A) (A) (A) (A) (A) (A) (A)
                 (A) (A) (A) (A) (A) (A) (A) (A) (A) (A) (A) (A)
                 (A) (A) (A) (A) (A) (A) (A) (A) (A) (A) (A) (A)
                 (A) (A) (A) (A) (A) (A) (A) (A) (A) (A) (A) (A)
                 (A) (A) (A) (A) (A) (A) (A) (A) (A) (A) (A) (A)
                 (A) (A) (A) (A) (A) (A) (A) (A) (A) (A) (A) (A)
                 (A) (A) (A) (A) (A) (A) (A) (A) (A) (A) (A) (A)
                 (A) (A) (A) (A) (A) (A) (A) (A) (A) (A) (A) (A)
                 (A) (A) (A) (A) (A) (A) (A) (A) (A) (A) (A) (A)
                 (A) (A) (A) (A) (A) (A) (A) (A) (A) (A) (A) (A)
                 (A) (A) (A) (A) (A) (A) (A) (A) (A) (A) (A) (A)
                 (A) (A) (A) (A) (A) (A) (A) (A) (A) (A) (A) (A)
                 (A) (A) (A) (A) (A) (A) (A) (A) (A) (A) (A) (A)
                 (A) (A) (A) (A) (A) (A) (A) (A) (A) (A) (A) (A)
                 (A) (A) (A) (A) (A) (A) (A) (A) (A) (A) (A) (A)
                 (A) (A) (A) (A) (A) (A) (A) (A) (A) (A) (A) (A)
                 (A) (A) (A) (A) (A) (A) (A) (A) (A) (A) (A) (A)
                 (A) (A) (A) (A) (A) (A) (A) (A) (A) (A) (A) (A)
                 (A) (A) (A) (A) (A) (A) (A) (A) (A) (A) (A) (A)
                 (A) (A) (A) (A) (A) (A) (A) (A) (A) (A) (A) (A)
                 (A) (A) (A) (A) (A) (A) (A) (A) (A) (A) (A) (A)
                 (A) (A) (A) (A) (A) (A) (A) (A) (A) (A) (A) (A)
                 (A) (A) (A) (A) (A) (A) (A) (A) (A) (A) (A) (A)
                 (A) (A) (A) (A) (A) (A) (A) (A) (A) (A) (A) (A)
                 (A) (A) (A) (A) (A) (A) (A) (A) (A) (A) (A) (A)
                 (A) (A) (A) (A) (A) (A) (A) (A) (A) (A) (A) (A)
                 (A) (A) (A) (A) (A) (A) (A) (A) (A) (A) (A) (A)
                 (A) (A) (A) (A) (A) (A) (A) (A) (A) (A) (A) (A)
                 (A) (A) (A) (A) (A) (A) (A) (A) (A) (A) (A) (A)
                 (A) (A) (A) (A) (A) (A) (A) (A) (A) (A) (A) (A)
                 (A) (A) (A) (A) (A) (A) (A) (A) (A) (A) (A) (A)
                 (A) (A) (A) (A) (A) (A) (A) (A) (A) (A) (A) (A)
                 (A) (A) (A) (A) (A) (A) (A) (A) (A) (A) (A) (A)
                 (A) (A) (A) (A) (A) (A) (A) (A) (A) (A) (A) (A)
                 (A) (A) (A) (A) (A) (A) (A) (A) (A) (A) (A) (A)
                 (A) (A) (A) (A) (A) (A) (A) (A) (A) (A) (A) (A)
                 (A) (A) (A) (A) (A) (A) (A) (A) (A) (A) (A) (A)
                 (A) (A) (A) (A) (A) (A) (A) (A) (A) (A) (A) (A)
                 (A) (A) (A) (A) (A) (A) (A) (A) (A) (A) (A) (A)
                 (A) (A) (A) (A) (A) (A) (A) (A) (A) (A) (A) (A)
                 (A) (A) (A) (A) (A) (A) (A) (A) (A) (A) (A) (A)
                 (A) (A) (A) (A) (A) (A) (A) (A) (A) (A) (A) (A)
                 (A) (A) (A) (A) (A) (A) (A) (A) (A) (A) (A) (A)
                 (A) (A) (A) (A) (A) (A) (A) (A) (A) (A) (A) (A)
                 (A) (A) (A) (A) (A) (A) (A) (A) (A) (A) (A) (A)
                 (A) (A) (A) (A) (A) (A) (A) (A) (A) (A) (A) (A)
                 (A) (A) (A) (A) (A) (A) (A) (A) (A) (A) (A) (A)
                 (A) (A) (A) (A) (A) (A) (A) (A) (A) (A) (A) (A)
                 (A) (A) (A) (A) (A) (A) (A) (A) (A) (A) (A) (A)
                 (A) (A) (A) (A) (A) (A) (A) (A) (A) (A) (A) (A)
                 (A) (A) (A) (A) (A) (A) (A) (A) (A) (A) (A) (A)
                 (A) (A) (A) (A) (A) (A) (A) (A) (A) (A) (A) (A)
                 (A) (A) (A) (A) (A) (A) (A) (A) (A) (A) (A) (A)
                 (A) (A) (A) (A) (A) (A) (A) (A) (A) (A) (A) (A)
                 (A) (A) (A) (A) (A) (A) (A) (A) (A) (A) (A) (A)
                 (A) (A) (A) (A) (A) (A) (A) (A) (A) (A) (A) (A)
                 (A) (A) (A) (A) (A) (A) (A) (A) (A) (A) (A) (A)
                 (A) (A) (A) (A) (A) (A) (A) (A) (A) (A) (A) (A)
                 (A) (A) (A) (A) (A) (A) (A) (A) (A) (A) (A) (A)
                 (A) (A) (A) (A) (A) (A) (A) (A) (A) (A) (A) (A)
                 (A) (A) (A) (A) (A) (A) (A) (A) (A) (A) (A) (A)
                 (A) (A) (A) (A) (A) (A) (A) (A) (A) (A) (A) (A)
                 (A) (A) (A) (A) (A) (A) (A) (A) (A) (A) (A) (A)
                 (A) (A) (A) (A) (A) (A) (A) (A) (A) (A) (A) (A)
                 (A) (A) (A) (A) (A) (A) (A) (A) (A) (A) (A) (A)
                 (A) (A) (A) (A) (A) (A) (A) (A) (A) (A) (A) (A)
                 (A) (A) (A) (A) (A) (A) (A) (A) (A) (A) (A) (A)
                 (A) (A) (A) (A) (A) (A) (A) (A) (A) (A) (A) (A)
                 (A) (A) (A) (A) (A) (A) (A) (A) (A) (A) (A) (A)
                 (A) (A) (A) (A) (A) (A) (A) (A) (A) (A) (A) (A)
                 (A) (A) (A) (A) (A) (A) (A) (A) (A) (A) (A) (A)
                 (A) (A) (A) (A) (A) (A) (A) (A) (A) (A) (A) (A)
                 (A) (A) (A) (A) (A) (A) (A) (A) (A) (A) (A) (A)
                 (A) (A) (A) (A) (A) (A) (A) (A) (A) (A) (A) (A)
                 (A) (A) (A) (A) (A) (A) (A) (A) (A) (A) (A) (A)
                 (A) (A) (A) (A) (A) (A) (A) (A) (A) (A) (A) (A)
                 (A) (A) (A) (A) (A) (A) (A) (A) (A) (A) (A) (A)
                 (A) (A) (A) (A) (A) (A) (A) (A) (A) (A) (A) (A)
                 (A) (A) (A) (A) (A) (A) (A) (A) (A) (A) (A) (A)
                 (A) (A) (A) (A) (A) (A) (A) (A) (A) (A) (A) (A)
                 (A) (A) (A) (A) (A) (A) (A) (A) (A) (A) (A) (A)
                 (A) (A) (A) (A) (A) (A) (A) (A) (A) (A) (A) (A)
                 (A) (A) (A) (A) (A) (A) (A) (A) (A) (A) (A) (A)
                 (A) (A) (A) (A) (A) (A) (A) (A) (A) (A) (A) (A)
                 (A) (A) (A) (A) (A) (A) (A) (A) (A) (A) (A) (A)
                 (A) (A) (A) (A) (A) (A) (A) (A) (A) (A) (A) (A)
                 (A) (A) (A) (A) (A) (A) (A) (A) (A) (A) (A) (A)
                 (A) (A) (A) (A) (A) (A) (A) (A) (A) (A) (A) (A)
                 (A) (A) (A) (A) (A) (A) (A) (A) (A) (A) (A) (A)
                 (A) (A) (A) (A) (A) (A) (A) (A) (A) (A) (A) (A)
                 (A) (A) (A) (A) (A) (A) (A) (A) (A) (A) (A) (A)
                 (A) (A) (A) (A) (A) (A) (A) (A) (A) (A) (A) (A)
                 (A) (A) (A) (A) (A) (A) (A) (A) (A) (A) (A) (A)
 Beta  Orbitals:
       Occupied  (A) (A) (A) (A) (A) (A) (A) (A) (A) (A) (A) (A)
                 (A) (A) (A) (A) (A) (A) (A) (A) (A) (A) (A) (A)
                 (A) (A) (A) (A) (A) (A) (A) (A) (A) (A) (A) (A)
                 (A) (A) (A) (A) (A) (A) (A) (A) (A) (A) (A) (A)
                 (A) (A) (A) (A) (A) (A) (A) (A) (A) (A) (A) (A)
                 (A) (A) (A) (A) (A) (A) (A) (A) (A) (A) (A) (A)
                 (A) (A) (A) (A) (A) (A) (A) (A) (A) (A) (A) (A)
                 (A) (A) (A) (A) (A) (A) (A) (A) (A) (A) (A) (A)
                 (A) (A) (A) (A) (A) (A) (A) (A) (A) (A) (A) (A)
                 (A) (A) (A) (A) (A) (A) (A) (A) (A) (A) (A) (A)
                 (A) (A) (A) (A) (A) (A) (A) (A) (A) (A) (A) (A)
                 (A) (A) (A) (A) (A) (A) (A) (A) (A) (A) (A) (A)
                 (A) (A) (A) (A) (A) (A) (A) (A) (A) (A) (A) (A)
                 (A) (A) (A) (A) (A) (A) (A) (A) (A) (A) (A) (A)
                 (A) (A) (A) (A) (A) (A) (A) (A) (A) (A) (A) (A)
                 (A) (A) (A) (A) (A) (A) (A) (A) (A) (A) (A) (A)
                 (A) (A) (A) (A) (A) (A) (A) (A) (A) (A) (A) (A)
                 (A) (A) (A) (A) (A)
       Virtual   (A) (A) (A) (A) (A) (A) (A) (A) (A) (A) (A) (A)
                 (A) (A) (A) (A) (A) (A) (A) (A) (A) (A) (A) (A)
                 (A) (A) (A) (A) (A) (A) (A) (A) (A) (A) (A) (A)
                 (A) (A) (A) (A) (A) (A) (A) (A) (A) (A) (A) (A)
                 (A) (A) (A) (A) (A) (A) (A) (A) (A) (A) (A) (A)
                 (A) (A) (A) (A) (A) (A) (A) (A) (A) (A) (A) (A)
                 (A) (A) (A) (A) (A) (A) (A) (A) (A) (A) (A) (A)
                 (A) (A) (A) (A) (A) (A) (A) (A) (A) (A) (A) (A)
                 (A) (A) (A) (A) (A) (A) (A) (A) (A) (A) (A) (A)
                 (A) (A) (A) (A) (A) (A) (A) (A) (A) (A) (A) (A)
                 (A) (A) (A) (A) (A) (A) (A) (A) (A) (A) (A) (A)
                 (A) (A) (A) (A) (A) (A) (A) (A) (A) (A) (A) (A)
                 (A) (A) (A) (A) (A) (A) (A) (A) (A) (A) (A) (A)
                 (A) (A) (A) (A) (A) (A) (A) (A) (A) (A) (A) (A)
                 (A) (A) (A) (A) (A) (A) (A) (A) (A) (A) (A) (A)
                 (A) (A) (A) (A) (A) (A) (A) (A) (A) (A) (A) (A)
                 (A) (A) (A) (A) (A) (A) (A) (A) (A) (A) (A) (A)
                 (A) (A) (A) (A) (A) (A) (A) (A) (A) (A) (A) (A)
                 (A) (A) (A) (A) (A) (A) (A) (A) (A) (A) (A) (A)
                 (A) (A) (A) (A) (A) (A) (A) (A) (A) (A) (A) (A)
                 (A) (A) (A) (A) (A) (A) (A) (A) (A) (A) (A) (A)
                 (A) (A) (A) (A) (A) (A) (A) (A) (A) (A) (A) (A)
                 (A) (A) (A) (A) (A) (A) (A) (A) (A) (A) (A) (A)
                 (A) (A) (A) (A) (A) (A) (A) (A) (A) (A) (A) (A)
                 (A) (A) (A) (A) (A) (A) (A) (A) (A) (A) (A) (A)
                 (A) (A) (A) (A) (A) (A) (A) (A) (A) (A) (A) (A)
                 (A) (A) (A) (A) (A) (A) (A) (A) (A) (A) (A) (A)
                 (A) (A) (A) (A) (A) (A) (A) (A) (A) (A) (A) (A)
                 (A) (A) (A) (A) (A) (A) (A) (A) (A) (A) (A) (A)
                 (A) (A) (A) (A) (A) (A) (A) (A) (A) (A) (A) (A)
                 (A) (A) (A) (A) (A) (A) (A) (A) (A) (A) (A) (A)
                 (A) (A) (A) (A) (A) (A) (A) (A) (A) (A) (A) (A)
                 (A) (A) (A) (A) (A) (A) (A) (A) (A) (A) (A) (A)
                 (A) (A) (A) (A) (A) (A) (A) (A) (A) (A) (A) (A)
                 (A) (A) (A) (A) (A) (A) (A) (A) (A) (A) (A) (A)
                 (A) (A) (A) (A) (A) (A) (A) (A) (A) (A) (A) (A)
                 (A) (A) (A) (A) (A) (A) (A) (A) (A) (A) (A) (A)
                 (A) (A) (A) (A) (A) (A) (A) (A) (A) (A) (A) (A)
                 (A) (A) (A) (A) (A) (A) (A) (A) (A) (A) (A) (A)
                 (A) (A) (A) (A) (A) (A) (A) (A) (A) (A) (A) (A)
                 (A) (A) (A) (A) (A) (A) (A) (A) (A) (A) (A) (A)
                 (A) (A) (A) (A) (A) (A) (A) (A) (A) (A) (A) (A)
                 (A) (A) (A) (A) (A) (A) (A) (A) (A) (A) (A) (A)
                 (A) (A) (A) (A) (A) (A) (A) (A) (A) (A) (A) (A)
                 (A) (A) (A) (A) (A) (A) (A) (A) (A) (A) (A) (A)
                 (A) (A) (A) (A) (A) (A) (A) (A) (A) (A) (A) (A)
                 (A) (A) (A) (A) (A) (A) (A) (A) (A) (A) (A) (A)
                 (A) (A) (A) (A) (A) (A) (A) (A) (A) (A) (A) (A)
                 (A) (A) (A) (A) (A) (A) (A) (A) (A) (A) (A) (A)
                 (A) (A) (A) (A) (A) (A) (A) (A) (A) (A) (A) (A)
                 (A) (A) (A) (A) (A) (A) (A) (A) (A) (A) (A) (A)
                 (A) (A) (A) (A) (A) (A) (A) (A) (A) (A) (A) (A)
                 (A) (A) (A) (A) (A) (A) (A) (A) (A) (A) (A) (A)
                 (A) (A) (A) (A) (A) (A) (A) (A) (A) (A) (A) (A)
                 (A) (A) (A) (A) (A) (A) (A) (A) (A) (A) (A) (A)
                 (A) (A) (A) (A) (A) (A) (A) (A) (A) (A) (A) (A)
                 (A) (A) (A) (A) (A) (A) (A) (A) (A) (A) (A) (A)
                 (A) (A) (A) (A) (A) (A) (A) (A) (A) (A) (A) (A)
                 (A) (A) (A) (A) (A) (A) (A) (A) (A) (A) (A) (A)
                 (A) (A) (A) (A) (A) (A) (A) (A) (A) (A) (A) (A)
                 (A) (A) (A) (A) (A) (A) (A) (A) (A) (A) (A) (A)
                 (A) (A) (A) (A) (A) (A) (A) (A) (A) (A) (A) (A)
                 (A) (A) (A) (A) (A) (A) (A) (A) (A) (A) (A) (A)
                 (A) (A) (A) (A) (A) (A) (A) (A) (A) (A) (A) (A)
                 (A) (A) (A) (A) (A) (A) (A) (A) (A) (A) (A) (A)
                 (A) (A) (A) (A) (A) (A) (A) (A) (A) (A) (A) (A)
                 (A) (A) (A) (A) (A) (A) (A) (A) (A) (A) (A) (A)
                 (A) (A) (A) (A) (A) (A) (A) (A) (A) (A) (A) (A)
                 (A) (A) (A) (A) (A) (A) (A) (A) (A) (A) (A) (A)
                 (A) (A) (A) (A) (A) (A) (A) (A) (A) (A) (A) (A)
                 (A) (A) (A) (A) (A) (A) (A) (A) (A) (A) (A) (A)
                 (A) (A) (A) (A) (A) (A) (A) (A) (A) (A) (A) (A)
                 (A) (A) (A) (A) (A) (A) (A) (A) (A) (A) (A) (A)
                 (A) (A) (A) (A) (A) (A) (A) (A) (A) (A) (A) (A)
                 (A) (A) (A) (A) (A) (A) (A) (A) (A) (A) (A) (A)
                 (A) (A) (A) (A) (A) (A) (A) (A) (A) (A) (A) (A)
                 (A) (A) (A) (A) (A) (A) (A) (A) (A) (A) (A) (A)
                 (A) (A) (A) (A) (A) (A) (A) (A) (A) (A) (A) (A)
                 (A) (A) (A) (A) (A) (A) (A) (A) (A) (A) (A) (A)
                 (A) (A) (A) (A) (A) (A) (A) (A) (A) (A) (A) (A)
                 (A) (A) (A) (A) (A) (A) (A) (A) (A) (A) (A) (A)
                 (A) (A) (A) (A) (A) (A) (A) (A) (A) (A) (A) (A)
                 (A) (A) (A) (A) (A) (A) (A) (A) (A) (A) (A) (A)
[...]
  Beta virt. eigenvalues --    4.52402   4.52735   4.53214   4.53563   4.53845
  Beta virt. eigenvalues --    4.54113   4.54495   4.54858   4.55170   4.55352
  Beta virt. eigenvalues --    4.55604   4.55977   4.56093   4.56188   4.56310
  Beta virt. eigenvalues --    4.56388   4.56463   4.56905   4.57191   4.57659
  Beta virt. eigenvalues --    4.57919   4.58091   4.58298   4.58507   4.59076
  Beta virt. eigenvalues --    4.59655   4.59890   4.60126   4.60176   4.60414
  Beta virt. eigenvalues --    4.60786   4.60857   4.61064   4.61406   4.61449
  Beta virt. eigenvalues --    4.61481   4.62067   4.62344   4.62399   4.62794
  Beta virt. eigenvalues --    4.62853   4.63365   4.63451   4.63806   4.63845
  Beta virt. eigenvalues --    4.64530   4.64777   4.64999   4.65258   4.65505
  Beta virt. eigenvalues --    4.65584   4.65711   4.66053   4.66497   4.67003
  Beta virt. eigenvalues --    4.67245   4.67607   4.67809   4.68170   4.68495
  Beta virt. eigenvalues --    4.69083   4.69930   4.70073   4.70226   4.70371
  Beta virt. eigenvalues --    4.70835   4.70965   4.71503   4.71680   4.71840
  Beta virt. eigenvalues --    4.72185   4.72446   4.72538   4.73072   4.73540
  Beta virt. eigenvalues --    4.73744   4.73795   4.74078   4.74179   4.74630
  Beta virt. eigenvalues --    4.74677   4.74808   4.75216   4.75559   4.75597
  Beta virt. eigenvalues --    4.75698   4.75903   4.76046   4.76294   4.76662
  Beta virt. eigenvalues --    4.76840   4.77425   4.77452   4.78325   4.78926
  Beta virt. eigenvalues --    4.79244   4.79442   4.79638   4.80116   4.80529
  Beta virt. eigenvalues --    4.80892   4.81142   4.81672   4.82136   4.82253
  Beta virt. eigenvalues --    4.82492   4.82777   4.83547   4.84278   4.84732
  Beta virt. eigenvalues --    4.84915   4.85613   4.85663   4.86443   4.86494
  Beta virt. eigenvalues --    4.87046   4.87342   4.87430   4.88385   4.89003
  Beta virt. eigenvalues --    4.89804   4.90197   4.91590   4.91893   4.92630
  Beta virt. eigenvalues --    4.93298   4.93502   4.94136   4.94791   4.95309
  Beta virt. eigenvalues --    4.95844   4.96349   4.96576   4.97233   4.97861
  Beta virt. eigenvalues --    4.98276   4.98713   4.98981   4.99680   5.00035
  Beta virt. eigenvalues --    5.00189   5.00660   5.01176   5.01456   5.01917
  Beta virt. eigenvalues --    5.02344   5.02882   5.03306   5.03696   5.04102
  Beta virt. eigenvalues --    5.04411   5.04631   5.05066   5.05366   5.06124
  Beta virt. eigenvalues --    5.06588   5.07090   5.07207   5.07415   5.07710
  Beta virt. eigenvalues --    5.07882   5.08260   5.08487   5.08814   5.09795
  Beta virt. eigenvalues --    5.09872   5.09950   5.10219   5.10807   5.10995
  Beta virt. eigenvalues --    5.11449   5.11725   5.12224   5.12802   5.13265
  Beta virt. eigenvalues --    5.13555   5.13575   5.13803   5.14130   5.14706
  Beta virt. eigenvalues --    5.15265   5.15512   5.15882   5.16074   5.16448
  Beta virt. eigenvalues --    5.16561   5.17298   5.17499   5.17663   5.17796
  Beta virt. eigenvalues --    5.17968   5.18353   5.18405   5.18556   5.19511
  Beta virt. eigenvalues --    5.19544   5.20427   5.20634   5.20884   5.21064
  Beta virt. eigenvalues --    5.21222   5.21364   5.21694   5.21751   5.21802
  Beta virt. eigenvalues --    5.22850   5.23430   5.23643   5.23896   5.24431
  Beta virt. eigenvalues --    5.24882   5.25168   5.25358   5.25771   5.25962
  Beta virt. eigenvalues --    5.26592   5.26747   5.27201   5.28878   5.29304
  Beta virt. eigenvalues --    5.29340   5.29507   5.29993   5.30257   5.30819
  Beta virt. eigenvalues --    5.30918   5.31059   5.31660   5.31871   5.32037
  Beta virt. eigenvalues --    5.32152   5.32352   5.32623   5.32971   5.33003
  Beta virt. eigenvalues --    5.33072   5.33415   5.33565   5.33910   5.34101
  Beta virt. eigenvalues --    5.34279   5.34651   5.35009   5.35111   5.35133
  Beta virt. eigenvalues --    5.35705   5.35933   5.36201   5.36344   5.36595
  Beta virt. eigenvalues --    5.36988   5.37270   5.37556   5.37821   5.37928
  Beta virt. eigenvalues --    5.38202   5.38253   5.38703   5.38976   5.39496
  Beta virt. eigenvalues --    5.40294   5.40628   5.40757   5.40943   5.41078
  Beta virt. eigenvalues --    5.41502   5.42363   5.42505   5.43064   5.43192
  Beta virt. eigenvalues --    5.44762   5.44855   5.45755   5.45930   5.46164
  Beta virt. eigenvalues --    5.46219   5.46484   5.46517   5.47324   5.47604
  Beta virt. eigenvalues --    5.48565   5.48654   5.48959   5.49171   5.49326
  Beta virt. eigenvalues --    5.49556   5.49892   5.50579   5.50661   5.50830
  Beta virt. eigenvalues --    5.51010   5.51312   5.51893   5.52833   5.53874
  Beta virt. eigenvalues --    5.54323   5.54640   5.55111   5.55742   5.57752
  Beta virt. eigenvalues --    5.59140   5.60504   5.61036   5.61189   5.61332
  Beta virt. eigenvalues --    5.61966   5.62192   5.62721   5.62933   5.63079
  Beta virt. eigenvalues --    5.63129   5.63196   5.63495   5.63634   5.63677
  Beta virt. eigenvalues --    5.63890   5.64088   5.64473   5.64824   5.65315
  Beta virt. eigenvalues --    5.66115   5.66514   5.67363   5.67573   5.68007
  Beta virt. eigenvalues --    5.68409   5.68661   5.68838   5.69089   5.69126
  Beta virt. eigenvalues --    5.69248   5.69276   5.69556   5.70576   5.70682
  Beta virt. eigenvalues --    5.70846   5.71232   5.71364   5.71603   5.72176
  Beta virt. eigenvalues --    5.72348   5.72561   5.72681   5.73332   5.73685
  Beta virt. eigenvalues --    5.74405   5.74896   5.75317   5.77205   5.78604
  Beta virt. eigenvalues --    5.80096   5.80769   5.81275   5.82847   5.83937
  Beta virt. eigenvalues --    5.84568   5.85638   5.86068   5.86730   5.90996
  Beta virt. eigenvalues --    5.93314   5.94690   5.95426   5.95853   5.97090
  Beta virt. eigenvalues --    6.00296   6.01494   6.05441   6.09354   6.09663
  Beta virt. eigenvalues --    6.19705   6.20756   6.21152   6.25475   6.29762
  Beta virt. eigenvalues --    6.36956   6.44628   6.47318   6.52168   6.53174
  Beta virt. eigenvalues --    6.65624   6.66220   6.80397   6.81156   6.82734
  Beta virt. eigenvalues --    6.82914   6.89999   6.90291   6.96079   6.97292
  Beta virt. eigenvalues --    6.98905   7.00422   7.01328   7.01981   7.06186
  Beta virt. eigenvalues --    7.12968   7.19032   7.19267   7.19656   7.23647
  Beta virt. eigenvalues --    7.25389   7.28297   7.34755   7.35016   7.47565
  Beta virt. eigenvalues --    7.48817   7.56324   7.57997   8.47892   8.49953
  Beta virt. eigenvalues --    8.58378   8.62209   8.81977   8.88664   8.92511
  Beta virt. eigenvalues --    8.93250   8.95179   9.02726  15.86969  22.76812
  Beta virt. eigenvalues --   22.79057  22.89584  22.92231  23.00262  23.00727
  Beta virt. eigenvalues --   23.01054  23.08349  23.10704  23.12550  23.14777
  Beta virt. eigenvalues --   23.16668  23.18717  23.22125  23.23258  23.23743
  Beta virt. eigenvalues --   23.24227  23.28458  23.31007  23.32263  23.34043
  Beta virt. eigenvalues --   23.37338  23.38554  23.40166  23.45499  23.45578
  Beta virt. eigenvalues --   23.50380  23.55855  23.56242  23.58229  23.64762
  Beta virt. eigenvalues --   23.67556  23.67787  23.69956  23.70348  23.71453
  Beta virt. eigenvalues --   23.74190  23.77564  23.77867  23.80141  23.81550
  Beta virt. eigenvalues --   23.85390  23.87804  23.88873  23.91001  23.91750
  Beta virt. eigenvalues --   23.92507  24.09296  24.10630  24.23771  32.20462
  Beta virt. eigenvalues --   33.16735  33.28973  44.46422  44.46844  57.41099
  Beta virt. eigenvalues --   57.58226
          Condensed to atoms (all electrons):
          Atomic-Atomic Spin Densities.
 Mulliken charges and spin densities:
               1          2
     1  C   -0.428054  -0.010861
     2  C   -0.046477   0.177475
     3  C   -0.109778  -0.088447
     4  C   -0.084739   0.191816
     5  C   -0.064328  -0.106183
     6  C   -0.192885   0.145461
     7  C   -0.031520  -0.027328
     8  C    0.000764   0.033393
     9  C   -0.130137  -0.024747
    10  C    0.025678   0.000303
    11  C   -0.461714   0.000273
    12  C   -0.390853  -0.000407
    13  C   -0.390928  -0.000391
    14  C    0.227642   0.045298
    15  O   -0.394268   0.005067
    16  C   -0.109587  -0.021078
    17  C   -0.086912   0.000035
    18  C   -0.471291   0.000539
    19  C   -0.350186  -0.000279
    20  C   -0.348796  -0.000308
    21  C   -0.078557   0.044623
    22  N   -0.147911   0.030873
    23  C    0.038809  -0.110916
    24  C    0.091932   0.407241
    25  C   -0.225506  -0.037187
    26  C   -0.149264   0.027375
    27  C   -0.111091  -0.014140
    28  C    0.098824   0.028462
    29  C   -0.199477  -0.006634
    30  N   -0.085688   0.010725
    31  C   -0.104359  -0.013912
    32  C   -0.157741   0.027315
    33  C    0.032176  -0.099064
    34  C    0.034793   0.164401
    35  C   -0.438500  -0.010775
    36  C   -0.253306  -0.078997
    37  C    0.013620   0.194294
    38  C   -0.175608  -0.077965
    39  C   -0.177161   0.116140
    40  C    0.006801  -0.036160
    41  C   -0.185231   0.036479
    42  C   -0.060467  -0.012837
    43  C    0.022741  -0.000275
    44  C   -0.395968  -0.000144
    45  C   -0.385825  -0.000183
    46  C   -0.446020   0.002190
    47  C    0.213982   0.027255
    48  O   -0.392560   0.002943
    49  C   -0.106941  -0.014843
    50  C   -0.078647   0.000047
    51  C   -0.468332   0.000239
    52  C   -0.351841  -0.000200
    53  C   -0.347105  -0.000177
    54  C   -0.037479   0.024019
    55  N   -0.143015   0.030126
    56  B    0.379290   0.004240
    57  F   -0.375346   0.001621
    58  F   -0.369432   0.001003
    59  H    0.141939   0.005789
    60  H    0.145906   0.008668
    61  H    0.121249   0.000928
    62  H    0.145201   0.000980
    63  H    0.080680   0.004711
    64  H    0.117736  -0.008396
    65  H    0.142109  -0.000404
    66  H    0.140728  -0.000120
    67  H    0.134736  -0.000010
    68  H    0.140879  -0.000130
    69  H    0.134849   0.000004
    70  H    0.147030   0.000053
    71  H    0.126012  -0.000067
    72  H    0.147067   0.000056
    73  H    0.134688   0.000004
    74  H    0.126078  -0.000067
    75  H    0.254042  -0.000196
    76  H    0.145636  -0.000120
    77  H    0.146047  -0.000197
    78  H    0.143376  -0.000019
    79  H    0.146266  -0.000018
    80  H    0.135278  -0.000046
    81  H    0.118586  -0.000004
    82  H    0.135379  -0.000045
    83  H    0.146237  -0.000018
    84  H    0.117743   0.000006
    85  H    0.161766  -0.001053
    86  H    0.176877   0.000061
    87  H    0.167592   0.000643
    88  H    0.167600   0.000587
    89  H    0.177999  -0.000038
    90  H    0.149500   0.008452
    91  H    0.115042   0.000928
    92  H    0.146545   0.005264
    93  H    0.188780   0.001347
    94  H    0.131551   0.004972
    95  H    0.114175  -0.008253
    96  H    0.193566  -0.009020
    97  H    0.148259   0.000019
    98  H    0.135398  -0.000011
    99  H    0.125991  -0.000032
   100  H    0.130041   0.000023
   101  H    0.146939   0.000026
   102  H    0.126712  -0.000035
   103  H    0.122126  -0.001306
   104  H    0.137378  -0.000020
   105  H    0.146949  -0.000092
   106  H    0.252457  -0.000082
   107  H    0.146151  -0.000063
   108  H    0.146079  -0.000099
   109  H    0.140546  -0.000006
   110  H    0.134690  -0.000026
   111  H    0.145479  -0.000009
   112  H    0.122195   0.000007
   113  H    0.146639  -0.000002
   114  H    0.136419  -0.000036
   115  H    0.114370   0.000008
   116  H    0.142490  -0.000331
 Sum of Mulliken charges =  -1.00000   1.00000
 Mulliken charges and spin densities with hydrogens summed into heavy atoms:
               1          2
     1  C   -0.018961   0.004524
     2  C   -0.046477   0.177475
     3  C    0.035422  -0.087467
     4  C   -0.084739   0.191816
     5  C    0.016352  -0.101472
     6  C   -0.075148   0.137064
     7  C   -0.031520  -0.027328
     8  C    0.142873   0.032990
     9  C   -0.130137  -0.024747
    10  C    0.025678   0.000303
    11  C   -0.045372   0.000014
    12  C    0.017038  -0.000417
    13  C    0.016906  -0.000399
    14  C    0.227642   0.045298
    15  O   -0.140226   0.004871
    16  C   -0.109587  -0.021078
    17  C   -0.086912   0.000035
    18  C   -0.036231   0.000203
    19  C    0.049944  -0.000346
    20  C    0.050563  -0.000365
    21  C    0.083209   0.043570
    22  N   -0.147911   0.030873
    23  C    0.038809  -0.110916
    24  C    0.091932   0.407241
    25  C   -0.225506  -0.037187
    26  C    0.027613   0.027436
    27  C    0.056500  -0.013497
    28  C    0.098824   0.028462
    29  C   -0.199477  -0.006634
    30  N   -0.085688   0.010725
    31  C    0.063241  -0.013326
    32  C    0.020259   0.027277
    33  C    0.032176  -0.099064
    34  C    0.034793   0.164401
    35  C   -0.027413   0.003868
    36  C   -0.064526  -0.077649
    37  C    0.013620   0.194294
    38  C   -0.044057  -0.072993
    39  C   -0.062986   0.107888
    40  C    0.006801  -0.036160
    41  C    0.008335   0.027458
    42  C   -0.060467  -0.012837
    43  C    0.022741  -0.000275
    44  C    0.013680  -0.000167
    45  C    0.017867  -0.000170
    46  C   -0.039568   0.000773
    47  C    0.213982   0.027255
    48  O   -0.140104   0.002862
    49  C   -0.106941  -0.014843
    50  C   -0.078647   0.000047
    51  C   -0.035556   0.000071
    52  C    0.050522  -0.000228
    53  C    0.050323  -0.000206
    54  C    0.105012   0.023688
    55  N   -0.143015   0.030126
    56  B    0.379290   0.004240
    57  F   -0.375346   0.001621
    58  F   -0.369432   0.001003
 Electronic spatial extent (au):  <R**2>=          65355.6993
 Charge=             -1.0000 electrons
 Dipole moment (field-independent basis, Debye):
    X=              1.8850    Y=            -10.9692    Z=             -0.1339  Tot=             11.1308
 Quadrupole moment (field-independent basis, Debye-Ang):
   XX=           -334.4300   YY=           -430.9004   ZZ=           -358.5201
   XY=             65.1783   XZ=              8.0689   YZ=              7.7073
 Traceless Quadrupole moment (field-independent basis, Debye-Ang):
   XX=             40.1868   YY=            -56.2835   ZZ=             16.0967
   XY=             65.1783   XZ=              8.0689   YZ=              7.7073
 Octapole moment (field-independent basis, Debye-Ang**2):
  XXX=            479.6796  YYY=          -1295.8507  ZZZ=              9.5084  XYY=            299.4413
  XXY=           -301.1494  XXZ=           -107.7159  XZZ=            -33.5323  YZZ=              9.2391
  YYZ=            -97.8395  XYZ=            -20.6815
 Hexadecapole moment (field-independent basis, Debye-Ang**3):
 XXXX=         -48449.2769 YYYY=         -45208.0150 ZZZZ=          -3352.4619 XXXY=           2579.9705
 XXXZ=            109.9627 YYYX=           6512.4429 YYYZ=           -186.8694 ZZZX=            -34.2349
 ZZZY=             56.9748 XXYY=         -16071.7380 XXZZ=          -9728.3975 YYZZ=          -5999.8393
 XXYZ=            235.6025 YYXZ=            640.3263 ZZXY=            -40.9882
 N-N= 7.743750286689D+03 E-N=-2.129608870378D+04  KE= 2.465673774801D+03
 Leave Link  601 at Fri Nov  7 07:38:38 2025, MaxMem= 30870077440 cpu:             172.0 elap:               3.2
 (Enter /public/software/gauss/g16/l9999.exe)
 1\1\GINC-CU015\SP\UM062X\def2TZVPP\C50H58B1F2N3O2(1-,2)\BAIDING\07-Nov
 -2025\0\\#p M062X/DEF2TZVPP scrf=(solvent=water) em=GD3\\Energy calcul
 ation for M100035179_reduced\\-1,2\C,0,1.341309,6.146692,-0.071185\C,0
 ,1.513136,4.654164,-0.069425\C,0,2.750566,4.016182,-0.018439\C,0,2.567
 322,2.623111,-0.080796\C,0,3.665794,1.697144,-0.021083\C,0,3.689983,0.
 342643,0.121124\C,0,4.886632,-0.495383,0.163407\C,0,4.739056,-1.867227
 ,0.434633\C,0,5.815838,-2.753369,0.50698\C,0,5.586881,-4.254792,0.8088
 33\C,0,4.090963,-4.579766,0.998406\C,0,6.089578,-5.126231,-0.367618\C,
 0,6.303841,-4.662171,2.118786\C,0,7.108892,-2.215345,0.290501\O,0,8.15
 8657,-3.108186,0.371889\C,0,7.319223,-0.840903,0.000234\C,0,8.731063,-
 0.248752,-0.254435\C,0,8.674591,1.263653,-0.554637\C,0,9.391751,-0.907
 153,-1.494111\C,0,9.627939,-0.402853,1.001866\C,0,6.190871,-0.018705,-
 0.055008\N,0,1.200701,2.384153,-0.183828\C,0,0.533638,3.615252,-0.1660
 1\C,0,-0.879514,3.684156,-0.301691\C,0,-1.57468,4.989226,-0.165159\C,0
 ,-1.613072,5.657771,1.07361\C,0,-2.26344,6.877197,1.214745\C,0,-2.8913
 38,7.463236,0.10046\C,0,-3.55898,8.718492,0.235322\N,0,-4.104876,9.744
 304,0.345556\C,0,-2.860965,6.812539,-1.146733\C,0,-2.212198,5.590173,-
 1.267751\C,0,-1.628861,2.504101,-0.570631\C,0,-3.035866,2.262475,-0.64
 8009\C,0,-4.188342,3.211544,-0.478501\C,0,-3.187688,0.894713,-0.89657\
 C,0,-1.920846,0.2924,-0.960885\C,0,-1.522526,-1.053417,-1.308483\C,0,-
 2.193229,-2.239089,-1.275208\C,0,-3.486302,-2.638104,-0.708294\C,0,-4.
 120179,-1.978955,0.35821\C,0,-5.326145,-2.416647,0.908869\C,0,-5.98139
 8,-1.647613,2.082742\C,0,-6.136396,-2.564159,3.320494\C,0,-7.360415,-1
 .088602,1.655581\C,0,-5.126647,-0.442708,2.527088\C,0,-5.914595,-3.580
 156,0.348362\O,0,-7.113168,-3.980058,0.902379\C,0,-5.302351,-4.306586,
 -0.703882\C,0,-5.91074,-5.608269,-1.289194\C,0,-5.02462,-6.205089,-2.4
 02165\C,0,-6.023582,-6.699331,-0.193299\C,0,-7.290812,-5.335339,-1.942
 583\C,0,-4.092981,-3.80634,-1.196938\N,0,-0.975306,1.292023,-0.764305\
 B,0,0.521595,1.040932,-0.507196\F,0,0.660841,0.128395,0.571406\F,0,1.1
 24116,0.454614,-1.646775\H,0,0.668351,6.489319,-0.863371\H,0,0.939058,
 6.532628,0.872444\H,0,2.313541,6.623431,-0.230709\H,0,3.714649,4.50399
 4,0.061092\H,0,4.620603,2.218894,-0.070663\H,0,2.754725,-0.190434,0.24
 4853\H,0,3.733904,-2.23751,0.595674\H,0,3.50238,-4.35791,0.102366\H,0,
 3.983403,-5.649216,1.206401\H,0,3.652104,-4.034931,1.840519\H,0,5.5558
 98,-4.873055,-1.290487\H,0,7.158033,-5.002122,-0.547832\H,0,5.901587,-
 6.184569,-0.153357\H,0,7.383506,-4.519079,2.062403\H,0,5.92536,-4.0763
 57,2.963878\H,0,6.112188,-5.719696,2.333827\H,0,8.99732,-2.657046,0.22
 0718\H,0,8.089423,1.483756,-1.452755\H,0,8.254817,1.833776,0.27973\H,0
 ,9.691994,1.628995,-0.725715\H,0,8.782443,-0.728821,-2.38605\H,0,10.37
 9665,-0.466572,-1.664885\H,0,9.532213,-1.98907,-1.413836\H,0,10.609795
 ,0.043792,0.813044\H,0,9.177535,0.115708,1.854351\H,0,9.802435,-1.4374
 44,1.312584\H,0,6.322954,1.029878,-0.283894\H,0,-1.134238,5.205367,1.9
 35881\H,0,-2.295181,7.377226,2.176838\H,0,-3.338485,7.27121,-2.005977\
 H,0,-2.184072,5.094352,-2.23247\H,0,-4.318178,3.885987,-1.33272\H,0,-5
 .116219,2.641473,-0.368729\H,0,-4.08038,3.84442,0.408003\H,0,-4.131118
 ,0.388022,-1.044667\H,0,-0.516363,-1.108922,-1.714655\H,0,-1.665207,-3
 .067156,-1.747086\H,0,-3.638829,-1.10557,0.772648\H,0,-6.779189,-3.422
 934,3.124933\H,0,-5.159667,-2.9365,3.649177\H,0,-6.572438,-1.995946,4.
 150089\H,0,-7.251667,-0.39705,0.812646\H,0,-8.053542,-1.877542,1.36061
 1\H,0,-7.810719,-0.533406,2.486458\H,0,-4.989236,0.289925,1.725197\H,0
 ,-5.632839,0.065622,3.354122\H,0,-4.137593,-0.747686,2.884333\H,0,-7.4
 91252,-4.708418,0.395268\H,0,-4.91415,-5.523663,-3.25136\H,0,-4.026904
 ,-6.467101,-2.037176\H,0,-5.491912,-7.122483,-2.773554\H,0,-6.450473,-
 7.612717,-0.621028\H,0,-5.031761,-6.942342,0.201668\H,0,-6.648857,-6.4
 15107,0.657037\H,0,-7.192541,-4.595766,-2.743639\H,0,-7.682005,-6.2601
 05,-2.379363\H,0,-8.059178,-4.962048,-1.257671\H,0,-3.586786,-4.33348,
 -1.996149\\Version=ES64L-G16RevA.03\State=2-A\HF=-2479.7517569\S2=0.78
 9446\S2-1=0.\S2A=0.751224\RMSD=3.557e-09\Dipole=0.7415985,-4.3156075,-
 0.052662\Quadrupole=29.8779094,-41.8454174,11.967508,48.4584357,5.9990
 214,5.7301723\PG=C01 [X(C50H58B1F2N3O2)]\\@


 SUPPORT THE RIGHT TO ARM BEARS!
 (ADD A CLAWS TO THE BILL OF RIGHTS)
 Job cpu time:       2 days 21 hours 36 minutes 36.3 seconds.
 Elapsed time:       0 days  1 hours  6 minutes  4.7 seconds.
 File lengths (MBytes):  RWF=   7133 Int=      0 D2E=      0 Chk=    472 Scr=      1
 Normal termination of Gaussian 16 at Fri Nov  7 07:38:39 2025.
