 Entering Gaussian System, Link 0=g16
 Input=M100035680_reduced_sp.gjf
 Output=M100035680_reduced_sp.log
 Initial command:
 /work/home/accqbws0vm/apprepo/gaussian/16-hy/scripts/../app/g16/l1.exe "/work/home/accqbws0vm/1009_first_energy/tmp_M100035680_reduced_sp_25803945/Gau-27440.inp" -scrdir="/work/home/accqbws0vm/1009_first_energy/tmp_M100035680_reduced_sp_25803945/"
 Entering Link 1 = /work/home/accqbws0vm/apprepo/gaussian/16-hy/scripts/../app/g16/l1.exe PID=     27441.
  
 Copyright (c) 1988,1990,1992,1993,1995,1998,2003,2009,2016,
            Gaussian, Inc.  All Rights Reserved.
  
 This is part of the Gaussian(R) 16 program.  It is based on
 the Gaussian(R) 09 system (copyright 2009, Gaussian, Inc.),
 the Gaussian(R) 03 system (copyright 2003, Gaussian, Inc.),
 the Gaussian(R) 98 system (copyright 1998, Gaussian, Inc.),
 the Gaussian(R) 94 system (copyright 1995, Gaussian, Inc.),
 the Gaussian 92(TM) system (copyright 1992, Gaussian, Inc.),
 the Gaussian 90(TM) system (copyright 1990, Gaussian, Inc.),
 the Gaussian 88(TM) system (copyright 1988, Gaussian, Inc.),
 the Gaussian 86(TM) system (copyright 1986, Carnegie Mellon
 University), and the Gaussian 82(TM) system (copyright 1983,
 Carnegie Mellon University). Gaussian is a federally registered
 trademark of Gaussian, Inc.
  
 This software contains proprietary and confidential information,
 including trade secrets, belonging to Gaussian, Inc.
  
 This software is provided under written license and may be
 used, copied, transmitted, or stored only in accord with that
 written license.
  
 The following legend is applicable only to US Government
 contracts under FAR:
  
                    RESTRICTED RIGHTS LEGEND
  
 Use, reproduction and disclosure by the US Government is
 subject to restrictions as set forth in subparagraphs (a)
 and (c) of the Commercial Computer Software - Restricted
 Rights clause in FAR 52.227-19.
  
 Gaussian, Inc.
 340 Quinnipiac St., Bldg. 40, Wallingford CT 06492
  
  
 ---------------------------------------------------------------
 Warning -- This program may not be used in any manner that
 competes with the business of Gaussian, Inc. or will provide
 assistance to any competitor of Gaussian, Inc.  The licensee
 of this program is prohibited from giving any competitor of
 Gaussian, Inc. access to this program.  By using this program,
 the user acknowledges that Gaussian, Inc. is engaged in the
 business of creating and licensing software in the field of
 computational chemistry and represents and warrants to the
 licensee that it is not a competitor of Gaussian, Inc. and that
 it will not use this program in any manner prohibited above.
 ---------------------------------------------------------------
  

 Cite this work as:
 Gaussian 16, Revision A.03,
 M. J. Frisch, G. W. Trucks, H. B. Schlegel, G. E. Scuseria, 
 M. A. Robb, J. R. Cheeseman, G. Scalmani, V. Barone, 
 G. A. Petersson, H. Nakatsuji, X. Li, M. Caricato, A. V. Marenich, 
 J. Bloino, B. G. Janesko, R. Gomperts, B. Mennucci, H. P. Hratchian, 
 J. V. Ortiz, A. F. Izmaylov, J. L. Sonnenberg, D. Williams-Young, 
 F. Ding, F. Lipparini, F. Egidi, J. Goings, B. Peng, A. Petrone, 
 T. Henderson, D. Ranasinghe, V. G. Zakrzewski, J. Gao, N. Rega, 
 G. Zheng, W. Liang, M. Hada, M. Ehara, K. Toyota, R. Fukuda, 
 J. Hasegawa, M. Ishida, T. Nakajima, Y. Honda, O. Kitao, H. Nakai, 
 T. Vreven, K. Throssell, J. A. Montgomery, Jr., J. E. Peralta, 
 F. Ogliaro, M. J. Bearpark, J. J. Heyd, E. N. Brothers, K. N. Kudin, 
 V. N. Staroverov, T. A. Keith, R. Kobayashi, J. Normand, 
 K. Raghavachari, A. P. Rendell, J. C. Burant, S. S. Iyengar, 
 J. Tomasi, M. Cossi, J. M. Millam, M. Klene, C. Adamo, R. Cammi, 
 J. W. Ochterski, R. L. Martin, K. Morokuma, O. Farkas, 
 J. B. Foresman, and D. J. Fox, Gaussian, Inc., Wallingford CT, 2016.
 
 ******************************************
 Gaussian 16:  ES64L-G16RevA.03 25-Dec-2016
                 9-Oct-2025 
 ******************************************
 %nprocshared=64
 Will use up to   64 processors via shared memory.
 %mem=230GB
 %chk=M100035680_reduced_sp.chk
 ----------------------------------------------
 #p M062X/DEF2TZVPP scrf=(solvent=water) em=GD3
 ----------------------------------------------
 1/38=1,172=1/1;
 2/12=2,17=6,18=5,40=1/2;
 3/5=44,7=202,11=2,25=1,30=1,70=2201,72=1,74=-55,124=31/1,2,3;
 4//1;
 5/5=2,38=5,53=1/2;
 6/7=2,8=2,9=2,10=2,28=1/1;
 99/5=1,9=1/99;
 Leave Link    1 at Thu Oct  9 09:42:06 2025, MaxMem= 30870077440 cpu:               6.0 elap:               0.1
 (Enter /work/home/accqbws0vm/apprepo/gaussian/16-hy/scripts/../app/g16/l101.exe)
 -----------------------------------------
 Energy calculation for M100035680_reduced
 -----------------------------------------
 Symbolic Z-matrix:
 Charge = -1 Multiplicity = 2
 C                    -1.67466  -5.5285   -1.1798 
 C                    -1.61385  -4.86094   0.20527 
 C                    -1.79301  -3.36618   0.17218 
 C                    -0.76759  -2.37727   0.18103 
 C                     0.67465  -2.49786   0.24091 
 C                     1.3854   -3.56255  -0.20642 
 C                     2.82852  -3.78891  -0.16984 
 C                     3.79012  -2.89331   0.39824 
 O                     3.36445  -1.75853   0.93688 
 C                     5.16689  -3.25353   0.36557 
 C                     5.61191  -4.44345  -0.20626 
 C                     4.66304  -5.28728  -0.75111 
 C                     3.30098  -4.97486  -0.73452 
 N                     5.09964  -6.53537  -1.35735 
 O                     6.30714  -6.79641  -1.3609 
 O                     4.24283  -7.28088  -1.84319 
 N                     6.17117  -2.38653   0.9385 
 O                     7.35111  -2.72552   0.90279 
 O                     5.80875  -1.30783   1.46038 
 N                    -1.35128  -1.13902   0.20563 
 C                    -2.72663  -1.29084   0.199 
 C                    -3.01957  -2.69335   0.18334 
 C                    -4.35804  -3.37089   0.21083 
 C                    -3.55849  -0.14757   0.18139 
 C                    -3.02784   1.1485    0.14703 
 C                    -3.67825   2.43784   0.06317 
 C                    -5.15984   2.67862   0.12319 
 C                    -2.67272   3.38591  -0.07373 
 C                    -2.69855   4.89091  -0.24945 
 C                    -4.03369   5.63727  -0.30881 
 C                    -1.41531   2.68763  -0.0194 
 C                    -0.14968   3.37196  -0.1334 
 C                     1.07395   2.94172   0.27654 
 C                     2.36084   3.60852   0.16123 
 C                     2.57648   4.86686  -0.47188 
 O                     1.57547   5.53762  -1.01557 
 C                     3.90449   5.4165   -0.52435 
 C                     4.98565   4.73092   0.03513 
 C                     4.74322   3.49555   0.64549 
 C                     3.47008   2.94098   0.71272 
 N                     5.84805   2.77172   1.22205 
 O                     5.63578   1.67299   1.76377 
 O                     6.98426   3.27048   1.15994 
 N                     4.11554   6.6496   -1.14163 
 O                     3.08045   7.2976   -1.68425 
 O                     5.2793    7.1744   -1.20104 
 N                    -1.64344   1.34992   0.12106 
 B                    -0.59403   0.20555   0.17654 
 F                     0.17285   0.30309   1.36073 
 F                     0.25437   0.26383  -0.93211 
 C                    -5.03536  -0.35764   0.15348 
 C                    -5.74684  -0.68607   1.30762 
 F                    -5.10204  -0.81434   2.4786 
 C                    -7.11844  -0.90978   1.29043 
 F                    -7.76911  -1.22824   2.41708 
 C                    -7.81471  -0.80775   0.09093 
 F                    -9.13389  -1.01995   0.06143 
 C                    -7.13364  -0.48487  -1.07781 
 F                    -7.80181  -0.37891  -2.23397 
 C                    -5.7617   -0.26574  -1.03427 
 F                    -5.1389    0.06064  -2.17796 
 H                    -2.64236  -5.34872  -1.65926 
 H                    -0.89895  -5.14109  -1.84859 
 H                    -1.53623  -6.61124  -1.0923 
 H                    -2.39289  -5.29789   0.83934 
 H                    -0.66259  -5.10407   0.68856 
 H                     1.18957  -1.65158   0.6715 
 H                     0.85405  -4.37528  -0.68927 
 H                     4.15843  -1.26524   1.27051 
 H                     6.66435  -4.68723  -0.21764 
 H                     2.59579  -5.67086  -1.17153 
 H                    -5.03095  -2.9929   -0.56368 
 H                    -4.24403  -4.4446    0.05126 
 H                    -4.85979  -3.23558   1.17526 
 H                    -5.64096   2.47448  -0.84016 
 H                    -5.64043   2.04547   0.87067 
 H                    -5.37777   3.71014   0.38439 
 H                    -2.09346   5.33639   0.55051 
 H                    -2.15209   5.1178   -1.1748 
 H                    -4.68558   5.2625   -1.10298 
 H                    -4.5791    5.59349   0.63802 
 H                    -3.8341    6.69312  -0.51832 
 H                    -0.22895   4.36087  -0.56206 
 H                     1.13893   1.98967   0.78695 
 H                     2.05066   6.41795  -1.4028 
 H                     5.97714   5.15406  -0.01175 
 H                     3.32719   1.98059   1.19108 
 
 ITRead=  0  0  0  0  0  0  0  0  0  0  0  0  0  0  0  0  0  0  0  0
 ITRead=  0  0  0  0  0  0  0  0  0  0  0  0  0  0  0  0  0  0  0  0
 ITRead=  0  0  0  0  0  0  0  0  0  0  0  0  0  0  0  0  0  0  0  0
 ITRead=  0  0  0  0  0  0  0  0  0  0  0  0  0  0  0  0  0  0  0  0
 ITRead=  0  0  0  0  0  0  0
 MicOpt= -1 -1 -1 -1 -1 -1 -1 -1 -1 -1 -1 -1 -1 -1 -1 -1 -1 -1 -1 -1
 MicOpt= -1 -1 -1 -1 -1 -1 -1 -1 -1 -1 -1 -1 -1 -1 -1 -1 -1 -1 -1 -1
 MicOpt= -1 -1 -1 -1 -1 -1 -1 -1 -1 -1 -1 -1 -1 -1 -1 -1 -1 -1 -1 -1
 MicOpt= -1 -1 -1 -1 -1 -1 -1 -1 -1 -1 -1 -1 -1 -1 -1 -1 -1 -1 -1 -1
 MicOpt= -1 -1 -1 -1 -1 -1 -1
 NAtoms=     87 NQM=       87 NQMF=       0 NMMI=      0 NMMIF=      0
                NMic=       0 NMicF=      0.
                    Isotopes and Nuclear Properties:
 (Nuclear quadrupole moments (NQMom) in fm**2, nuclear magnetic moments (NMagM)
  in nuclear magnetons)

  Atom         1           2           3           4           5           6           7           8           9          10
 IAtWgt=          12          12          12          12          12          12          12          12          16          12
 AtmWgt=  12.0000000  12.0000000  12.0000000  12.0000000  12.0000000  12.0000000  12.0000000  12.0000000  15.9949146  12.0000000
 NucSpn=           0           0           0           0           0           0           0           0           0           0
 AtZEff=  -0.0000000  -0.0000000  -0.0000000  -0.0000000  -0.0000000  -0.0000000  -0.0000000  -0.0000000  -0.0000000  -0.0000000
 NQMom=    0.0000000   0.0000000   0.0000000   0.0000000   0.0000000   0.0000000   0.0000000   0.0000000   0.0000000   0.0000000
 NMagM=    0.0000000   0.0000000   0.0000000   0.0000000   0.0000000   0.0000000   0.0000000   0.0000000   0.0000000   0.0000000
 AtZNuc=   6.0000000   6.0000000   6.0000000   6.0000000   6.0000000   6.0000000   6.0000000   6.0000000   8.0000000   6.0000000

  Atom        11          12          13          14          15          16          17          18          19          20
 IAtWgt=          12          12          12          14          16          16          14          16          16          14
 AtmWgt=  12.0000000  12.0000000  12.0000000  14.0030740  15.9949146  15.9949146  14.0030740  15.9949146  15.9949146  14.0030740
 NucSpn=           0           0           0           2           0           0           2           0           0           2
 AtZEff=  -0.0000000  -0.0000000  -0.0000000  -0.0000000  -0.0000000  -0.0000000  -0.0000000  -0.0000000  -0.0000000  -0.0000000
 NQMom=    0.0000000   0.0000000   0.0000000   2.0440000   0.0000000   0.0000000   2.0440000   0.0000000   0.0000000   2.0440000
 NMagM=    0.0000000   0.0000000   0.0000000   0.4037610   0.0000000   0.0000000   0.4037610   0.0000000   0.0000000   0.4037610
 AtZNuc=   6.0000000   6.0000000   6.0000000   7.0000000   8.0000000   8.0000000   7.0000000   8.0000000   8.0000000   7.0000000

  Atom        21          22          23          24          25          26          27          28          29          30
 IAtWgt=          12          12          12          12          12          12          12          12          12          12
 AtmWgt=  12.0000000  12.0000000  12.0000000  12.0000000  12.0000000  12.0000000  12.0000000  12.0000000  12.0000000  12.0000000
 NucSpn=           0           0           0           0           0           0           0           0           0           0
 AtZEff=  -0.0000000  -0.0000000  -0.0000000  -0.0000000  -0.0000000  -0.0000000  -0.0000000  -0.0000000  -0.0000000  -0.0000000
 NQMom=    0.0000000   0.0000000   0.0000000   0.0000000   0.0000000   0.0000000   0.0000000   0.0000000   0.0000000   0.0000000
 NMagM=    0.0000000   0.0000000   0.0000000   0.0000000   0.0000000   0.0000000   0.0000000   0.0000000   0.0000000   0.0000000
 AtZNuc=   6.0000000   6.0000000   6.0000000   6.0000000   6.0000000   6.0000000   6.0000000   6.0000000   6.0000000   6.0000000

  Atom        31          32          33          34          35          36          37          38          39          40
 IAtWgt=          12          12          12          12          12          16          12          12          12          12
 AtmWgt=  12.0000000  12.0000000  12.0000000  12.0000000  12.0000000  15.9949146  12.0000000  12.0000000  12.0000000  12.0000000
 NucSpn=           0           0           0           0           0           0           0           0           0           0
 AtZEff=  -0.0000000  -0.0000000  -0.0000000  -0.0000000  -0.0000000  -0.0000000  -0.0000000  -0.0000000  -0.0000000  -0.0000000
 NQMom=    0.0000000   0.0000000   0.0000000   0.0000000   0.0000000   0.0000000   0.0000000   0.0000000   0.0000000   0.0000000
 NMagM=    0.0000000   0.0000000   0.0000000   0.0000000   0.0000000   0.0000000   0.0000000   0.0000000   0.0000000   0.0000000
 AtZNuc=   6.0000000   6.0000000   6.0000000   6.0000000   6.0000000   8.0000000   6.0000000   6.0000000   6.0000000   6.0000000

  Atom        41          42          43          44          45          46          47          48          49          50
 IAtWgt=          14          16          16          14          16          16          14          11          19          19
 AtmWgt=  14.0030740  15.9949146  15.9949146  14.0030740  15.9949146  15.9949146  14.0030740  11.0093053  18.9984032  18.9984032
 NucSpn=           2           0           0           2           0           0           2           3           1           1
 AtZEff=  -0.0000000  -0.0000000  -0.0000000  -0.0000000  -0.0000000  -0.0000000  -0.0000000  -0.0000000  -0.0000000  -0.0000000
 NQMom=    2.0440000   0.0000000   0.0000000   2.0440000   0.0000000   0.0000000   2.0440000   4.0590000   0.0000000   0.0000000
 NMagM=    0.4037610   0.0000000   0.0000000   0.4037610   0.0000000   0.0000000   0.4037610   2.6886370   2.6288670   2.6288670
 AtZNuc=   7.0000000   8.0000000   8.0000000   7.0000000   8.0000000   8.0000000   7.0000000   5.0000000   9.0000000   9.0000000

  Atom        51          52          53          54          55          56          57          58          59          60
 IAtWgt=          12          12          19          12          19          12          19          12          19          12
 AtmWgt=  12.0000000  12.0000000  18.9984032  12.0000000  18.9984032  12.0000000  18.9984032  12.0000000  18.9984032  12.0000000
 NucSpn=           0           0           1           0           1           0           1           0           1           0
 AtZEff=  -0.0000000  -0.0000000  -0.0000000  -0.0000000  -0.0000000  -0.0000000  -0.0000000  -0.0000000  -0.0000000  -0.0000000
 NQMom=    0.0000000   0.0000000   0.0000000   0.0000000   0.0000000   0.0000000   0.0000000   0.0000000   0.0000000   0.0000000
 NMagM=    0.0000000   0.0000000   2.6288670   0.0000000   2.6288670   0.0000000   2.6288670   0.0000000   2.6288670   0.0000000
 AtZNuc=   6.0000000   6.0000000   9.0000000   6.0000000   9.0000000   6.0000000   9.0000000   6.0000000   9.0000000   6.0000000

  Atom        61          62          63          64          65          66          67          68          69          70
 IAtWgt=          19           1           1           1           1           1           1           1           1           1
 AtmWgt=  18.9984032   1.0078250   1.0078250   1.0078250   1.0078250   1.0078250   1.0078250   1.0078250   1.0078250   1.0078250
 NucSpn=           1           1           1           1           1           1           1           1           1           1
 AtZEff=  -0.0000000  -0.0000000  -0.0000000  -0.0000000  -0.0000000  -0.0000000  -0.0000000  -0.0000000  -0.0000000  -0.0000000
 NQMom=    0.0000000   0.0000000   0.0000000   0.0000000   0.0000000   0.0000000   0.0000000   0.0000000   0.0000000   0.0000000
 NMagM=    2.6288670   2.7928460   2.7928460   2.7928460   2.7928460   2.7928460   2.7928460   2.7928460   2.7928460   2.7928460
 AtZNuc=   9.0000000   1.0000000   1.0000000   1.0000000   1.0000000   1.0000000   1.0000000   1.0000000   1.0000000   1.0000000

  Atom        71          72          73          74          75          76          77          78          79          80
 IAtWgt=           1           1           1           1           1           1           1           1           1           1
 AtmWgt=   1.0078250   1.0078250   1.0078250   1.0078250   1.0078250   1.0078250   1.0078250   1.0078250   1.0078250   1.0078250
 NucSpn=           1           1           1           1           1           1           1           1           1           1
 AtZEff=  -0.0000000  -0.0000000  -0.0000000  -0.0000000  -0.0000000  -0.0000000  -0.0000000  -0.0000000  -0.0000000  -0.0000000
 NQMom=    0.0000000   0.0000000   0.0000000   0.0000000   0.0000000   0.0000000   0.0000000   0.0000000   0.0000000   0.0000000
 NMagM=    2.7928460   2.7928460   2.7928460   2.7928460   2.7928460   2.7928460   2.7928460   2.7928460   2.7928460   2.7928460
 AtZNuc=   1.0000000   1.0000000   1.0000000   1.0000000   1.0000000   1.0000000   1.0000000   1.0000000   1.0000000   1.0000000

  Atom        81          82          83          84          85          86          87
 IAtWgt=           1           1           1           1           1           1           1
 AtmWgt=   1.0078250   1.0078250   1.0078250   1.0078250   1.0078250   1.0078250   1.0078250
 NucSpn=           1           1           1           1           1           1           1
 AtZEff=  -0.0000000  -0.0000000  -0.0000000  -0.0000000  -0.0000000  -0.0000000  -0.0000000
 NQMom=    0.0000000   0.0000000   0.0000000   0.0000000   0.0000000   0.0000000   0.0000000
 NMagM=    2.7928460   2.7928460   2.7928460   2.7928460   2.7928460   2.7928460   2.7928460
 AtZNuc=   1.0000000   1.0000000   1.0000000   1.0000000   1.0000000   1.0000000   1.0000000
 Leave Link  101 at Thu Oct  9 09:42:06 2025, MaxMem= 30870077440 cpu:               4.5 elap:               0.1
 (Enter /work/home/accqbws0vm/apprepo/gaussian/16-hy/scripts/../app/g16/l202.exe)
 Stoichiometry    C37H26BF7N6O10(1-,2)
 Framework group  C1[X(C37H26BF7N6O10)]
 Deg. of freedom   255
 Full point group                 C1      NOp   1
 Largest Abelian subgroup         C1      NOp   1
 Largest concise Abelian subgroup C1      NOp   1
                         Standard orientation:                         
 ---------------------------------------------------------------------
 Center     Atomic      Atomic             Coordinates (Angstroms)
 Number     Number       Type             X           Y           Z
 ---------------------------------------------------------------------
      1          6           0       -1.674657   -5.528499   -1.179795
      2          6           0       -1.613849   -4.860944    0.205272
      3          6           0       -1.793009   -3.366183    0.172181
      4          6           0       -0.767590   -2.377272    0.181031
      5          6           0        0.674652   -2.497861    0.240910
      6          6           0        1.385401   -3.562548   -0.206415
      7          6           0        2.828522   -3.788907   -0.169844
      8          6           0        3.790121   -2.893308    0.398241
      9          8           0        3.364449   -1.758525    0.936881
     10          6           0        5.166888   -3.253525    0.365567
     11          6           0        5.611913   -4.443453   -0.206256
     12          6           0        4.663038   -5.287281   -0.751111
     13          6           0        3.300979   -4.974864   -0.734519
     14          7           0        5.099642   -6.535366   -1.357353
     15          8           0        6.307139   -6.796409   -1.360897
     16          8           0        4.242834   -7.280879   -1.843186
     17          7           0        6.171167   -2.386526    0.938498
     18          8           0        7.351110   -2.725520    0.902786
     19          8           0        5.808749   -1.307828    1.460382
     20          7           0       -1.351281   -1.139024    0.205632
     21          6           0       -2.726626   -1.290841    0.198998
     22          6           0       -3.019572   -2.693351    0.183341
     23          6           0       -4.358036   -3.370893    0.210827
     24          6           0       -3.558490   -0.147571    0.181385
     25          6           0       -3.027843    1.148495    0.147025
     26          6           0       -3.678251    2.437837    0.063166
     27          6           0       -5.159840    2.678622    0.123187
     28          6           0       -2.672724    3.385906   -0.073734
     29          6           0       -2.698547    4.890913   -0.249454
     30          6           0       -4.033686    5.637271   -0.308811
     31          6           0       -1.415312    2.687632   -0.019396
     32          6           0       -0.149678    3.371964   -0.133395
     33          6           0        1.073955    2.941718    0.276541
     34          6           0        2.360844    3.608522    0.161234
     35          6           0        2.576484    4.866859   -0.471879
     36          8           0        1.575470    5.537622   -1.015574
     37          6           0        3.904488    5.416500   -0.524349
     38          6           0        4.985645    4.730918    0.035125
     39          6           0        4.743224    3.495550    0.645488
     40          6           0        3.470084    2.940980    0.712716
     41          7           0        5.848045    2.771718    1.222047
     42          8           0        5.635777    1.672990    1.763771
     43          8           0        6.984255    3.270482    1.159942
     44          7           0        4.115544    6.649597   -1.141633
     45          8           0        3.080453    7.297605   -1.684246
     46          8           0        5.279301    7.174397   -1.201039
     47          7           0       -1.643442    1.349915    0.121063
     48          5           0       -0.594028    0.205554    0.176537
     49          9           0        0.172848    0.303086    1.360726
     50          9           0        0.254367    0.263825   -0.932112
     51          6           0       -5.035362   -0.357639    0.153480
     52          6           0       -5.746838   -0.686074    1.307620
     53          9           0       -5.102038   -0.814340    2.478595
     54          6           0       -7.118442   -0.909777    1.290433
     55          9           0       -7.769108   -1.228236    2.417082
     56          6           0       -7.814708   -0.807754    0.090926
     57          9           0       -9.133893   -1.019947    0.061429
     58          6           0       -7.133637   -0.484870   -1.077806
     59          9           0       -7.801809   -0.378906   -2.233968
     60          6           0       -5.761702   -0.265736   -1.034274
     61          9           0       -5.138903    0.060639   -2.177963
     62          1           0       -2.642355   -5.348716   -1.659259
     63          1           0       -0.898951   -5.141085   -1.848585
     64          1           0       -1.536225   -6.611244   -1.092299
     65          1           0       -2.392890   -5.297890    0.839338
     66          1           0       -0.662594   -5.104075    0.688561
     67          1           0        1.189572   -1.651577    0.671503
     68          1           0        0.854054   -4.375283   -0.689272
     69          1           0        4.158428   -1.265237    1.270507
     70          1           0        6.664352   -4.687227   -0.217644
     71          1           0        2.595789   -5.670861   -1.171532
     72          1           0       -5.030951   -2.992899   -0.563678
     73          1           0       -4.244027   -4.444599    0.051260
     74          1           0       -4.859787   -3.235575    1.175258
     75          1           0       -5.640961    2.474483   -0.840164
     76          1           0       -5.640430    2.045465    0.870666
     77          1           0       -5.377770    3.710137    0.384393
     78          1           0       -2.093457    5.336388    0.550512
     79          1           0       -2.152089    5.117795   -1.174795
     80          1           0       -4.685582    5.262505   -1.102978
     81          1           0       -4.579098    5.593489    0.638021
     82          1           0       -3.834099    6.693122   -0.518315
     83          1           0       -0.228945    4.360874   -0.562055
     84          1           0        1.138934    1.989674    0.786946
     85          1           0        2.050663    6.417947   -1.402796
     86          1           0        5.977141    5.154058   -0.011745
     87          1           0        3.327188    1.980585    1.191078
 ---------------------------------------------------------------------
 Rotational constants (GHZ):           0.0405427           0.0258728           0.0168415
 Leave Link  202 at Thu Oct  9 09:42:07 2025, MaxMem= 30870077440 cpu:               5.1 elap:               0.1
 (Enter /work/home/accqbws0vm/apprepo/gaussian/16-hy/scripts/../app/g16/l301.exe)
 Standard basis: def2TZVPP (5D, 7F)
 Ernie: Thresh=  0.10000D-02 Tol=  0.10000D-05 Strict=F.
 There are  2586 symmetry adapted cartesian basis functions of A   symmetry.
 There are  2255 symmetry adapted basis functions of A   symmetry.
  2255 basis functions,  3553 primitive gaussians,  2586 cartesian basis functions
   220 alpha electrons      219 beta electrons
       nuclear repulsion energy      8858.4851782552 Hartrees.
 IExCor= 4336 DFT=T Ex+Corr=M062X ExCW=0 ScaHFX=  0.540000
 ScaDFX=  1.000000  1.000000  1.000000  1.000000 ScalE2=  1.000000  1.000000
 IRadAn=      5 IRanWt=     -1 IRanGd=            0 ICorTp=0 IEmpDi=131
 NAtoms=   87 NActive=   87 NUniq=   87 SFac= 1.00D+00 NAtFMM=   60 NAOKFM=T Big=T
 Integral buffers will be    131072 words long.
 Raffenetti 2 integral format.
 Two-electron integral symmetry is turned on.
 R6Disp:  Grimme-D3 Dispersion energy=       -0.0093410066 Hartrees.
 Nuclear repulsion after empirical dispersion term =     8858.4758372486 Hartrees.
 ------------------------------------------------------------------------------
 Polarizable Continuum Model (PCM)
 =================================
 Model                : PCM.
 Atomic radii         : UFF (Universal Force Field).
 Polarization charges : Total charges.
 Charge compensation  : None.
 Solution method      : On-the-fly selection.
 Cavity type          : Scaled VdW (van der Waals Surface) (Alpha=1.100).
 Cavity algorithm     : GePol (No added spheres)
                        Default sphere list used, NSphG=   87.
                        Lebedev-Laikov grids with approx.  5.0 points / Ang**2.
                        Smoothing algorithm: York/Karplus (Gamma=1.0000).
                        Polarization charges: spherical gaussians, with
                                              point-specific exponents (IZeta= 3).
                        Self-potential: point-specific (ISelfS= 7).
                        Self-field    : sphere-specific E.n sum rule (ISelfD= 2).
 Solvent              : Water, Eps=  78.355300 Eps(inf)=   1.777849
 ------------------------------------------------------------------------------
 GePol: Number of generator spheres                  =      87
 GePol: Total number of spheres                      =      87
 GePol: Number of exposed spheres                    =      87 (100.00%)
 GePol: Number of points                             =    6495
 GePol: Average weight of points                     =       0.12
 GePol: Minimum weight of points                     =   0.36D-11
 GePol: Maximum weight of points                     =    0.20577
 GePol: Number of points with low weight             =     401
 GePol: Fraction of low-weight points (<1% of avg)   =       6.17%
 GePol: Cavity surface area                          =    802.896 Ang**2
 GePol: Cavity volume                                =    961.926 Ang**3
 Leave Link  301 at Thu Oct  9 09:42:07 2025, MaxMem= 30870077440 cpu:               8.3 elap:               0.1
 (Enter /work/home/accqbws0vm/apprepo/gaussian/16-hy/scripts/../app/g16/l302.exe)
 NPDir=0 NMtPBC=     1 NCelOv=     1 NCel=       1 NClECP=     1 NCelD=      1
         NCelK=      1 NCelE2=     1 NClLst=     1 CellRange=     0.0.
 One-electron integrals computed using PRISM.
 One-electron integral symmetry used in STVInt
   1 Symmetry operations used in ECPInt.
 ECPInt:  NShTT=  342378 NPrTT= 1021726 LenC2=  204181 LenP2D=  392116.
 LDataN:  DoStor=T MaxTD1= 6 Len=  172
 NBasis=  2255 RedAO= T EigKep=  3.35D-06  NBF=  2255
 NBsUse=  2255 1.00D-06 EigRej= -1.00D+00 NBFU=  2255
 Precomputing XC quadrature grid using
 IXCGrd= 4 IRadAn=           5 IRanWt=          -1 IRanGd=           0 AccXCQ= 0.00D+00.
 Generated NRdTot=       0 NPtTot=           0 NUsed=           0 NTot=          32
 NSgBfM=  2310  2304  2307  2310  2310 MxSgAt=    87 MxSgA2=    87.
 Leave Link  302 at Thu Oct  9 09:42:25 2025, MaxMem= 30870077440 cpu:            1140.3 elap:              18.0
 (Enter /work/home/accqbws0vm/apprepo/gaussian/16-hy/scripts/../app/g16/l303.exe)
 DipDrv:  MaxL=1.
 Leave Link  303 at Thu Oct  9 09:42:26 2025, MaxMem= 30870077440 cpu:              46.9 elap:               0.9
 (Enter /work/home/accqbws0vm/apprepo/gaussian/16-hy/scripts/../app/g16/l401.exe)
 ExpMin= 6.06D-02 ExpMax= 3.55D+04 ExpMxC= 1.21D+03 IAcc=3 IRadAn=         5 AccDes= 0.00D+00
 Harris functional with IExCor= 1009 and IRadAn=       5 diagonalized for initial guess.
 HarFok:  IExCor= 1009 AccDes= 0.00D+00 IRadAn=         5 IDoV= 1 UseB2=F ITyADJ=14
 ICtDFT=  3500011 ScaDFX=  1.000000  1.000000  1.000000  1.000000
 FoFCou: FMM=F IPFlag=           0 FMFlag=      100000 FMFlg1=        2001
         NFxFlg=           0 DoJE=T BraDBF=F KetDBF=T FulRan=T
         wScrn=  0.000000 ICntrl=       500 IOpCl=  0 I1Cent=   200000004 NGrid=           0
         NMat0=    1 NMatS0=      1 NMatT0=    0 NMatD0=    1 NMtDS0=    0 NMtDT0=    0
 Petite list used in FoFCou.
 Harris En= -3228.46321939869    
 JPrj=0 DoOrth=F DoCkMO=F.
 Initial guess <Sx>= 0.0000 <Sy>= 0.0000 <Sz>= 0.5000 <S**2>= 0.7500 S= 0.5000
 Leave Link  401 at Thu Oct  9 09:42:43 2025, MaxMem= 30870077440 cpu:            1113.0 elap:              17.6
 (Enter /work/home/accqbws0vm/apprepo/gaussian/16-hy/scripts/../app/g16/l502.exe)
 Integral symmetry usage will be decided dynamically.
 UHF open shell SCF:
 Using DIIS extrapolation, IDIIS=  1040.
 NGot= 30870077440 LenX= 30856515677 LenY= 30849825695
 Requested convergence on RMS density matrix=1.00D-08 within 128 cycles.
 Requested convergence on MAX density matrix=1.00D-06.
 Requested convergence on             energy=1.00D-06.
 No special actions if energy rises.
 Fock matrices will be formed incrementally for  20 cycles.

 Cycle   1  Pass 1  IDiag  1:
 FoFJK:  IHMeth= 1 ICntrl=       0 DoSepK=F KAlg= 0 I1Cent=           0 FoldK=F
 IRaf= 550000000 NMat=       1 IRICut=       1 DoRegI=T DoRafI=F ISym2E= 0 IDoP0=0 IntGTp=1.
 FoFCou: FMM=T IPFlag=           0 FMFlag=      100000 FMFlg1=        2001
         NFxFlg=           0 DoJE=F BraDBF=F KetDBF=F FulRan=T
         wScrn=  0.000000 ICntrl=         0 IOpCl=  1 I1Cent=           0 NGrid=           0
         NMat0=    1 NMatS0=      1 NMatT0=    0 NMatD0=    1 NMtDS0=    0 NMtDT0=    0
 Symmetry not used in FoFCou.
 FMM levels:  10  Number of levels for PrismC:   9
 Inv3:  Mode=1 IEnd=   126555075.
 Iteration    1 A*A^-1 deviation from unit magnitude is 3.44D-15 for   6140.
 Iteration    1 A*A^-1 deviation from orthogonality  is 4.91D-15 for   4554    991.
 Iteration    1 A^-1*A deviation from unit magnitude is 3.44D-15 for   6140.
 Iteration    1 A^-1*A deviation from orthogonality  is 2.62D-13 for   3265   3137.
 E= -3228.58594682046    
 DIIS: error= 2.02D-02 at cycle   1 NSaved=   1.
 NSaved= 1 IEnMin= 1 EnMin= -3228.58594682046     IErMin= 1 ErrMin= 2.02D-02
 ErrMax= 2.02D-02  0.00D+00 EMaxC= 1.00D-01 BMatC= 8.75D+00 BMatP= 8.75D+00
 IDIUse=3 WtCom= 7.98D-01 WtEn= 2.02D-01
 Coeff-Com:  0.100D+01
 Coeff-En:   0.100D+01
 Coeff:      0.100D+01
 Gap=     0.016 Goal=   None    Shift=    0.000
 Gap=     0.138 Goal=   None    Shift=    0.000
 GapD=    0.016 DampG=0.250 DampE=0.500 DampFc=0.2500 IDamp=-1.
 Damping current iteration by 2.50D-01
 RMSDP=1.54D-03 MaxDP=2.48D-01              OVMax= 9.44D-01

 Cycle   2  Pass 1  IDiag  1:
 RMSU=  3.84D-04    CP:  9.98D-01
 E= -3229.09531652225     Delta-E=       -0.509369701791 Rises=F Damp=T
 DIIS: error= 8.85D-03 at cycle   2 NSaved=   2.
 NSaved= 2 IEnMin= 2 EnMin= -3229.09531652225     IErMin= 2 ErrMin= 8.85D-03
 ErrMax= 8.85D-03  0.00D+00 EMaxC= 1.00D-01 BMatC= 2.73D+00 BMatP= 8.75D+00
 IDIUse=3 WtCom= 9.12D-01 WtEn= 8.85D-02
 Coeff-Com: -0.874D+00 0.187D+01
 Coeff-En:   0.000D+00 0.100D+01
 Coeff:     -0.797D+00 0.180D+01
 Gap=     0.149 Goal=   None    Shift=    0.000
 Gap=    -0.157 Goal=   None    Shift=    0.000
 RMSDP=1.10D-03 MaxDP=3.16D-01 DE=-5.09D-01 OVMax= 9.88D-01

 Cycle   3  Pass 1  IDiag  1:
 RMSU=  9.17D-04    CP:  1.01D+00  2.55D+00
 E= -3229.87821556375     Delta-E=       -0.782899041496 Rises=F Damp=F
 DIIS: error= 1.16D-02 at cycle   3 NSaved=   3.
 NSaved= 3 IEnMin= 3 EnMin= -3229.87821556375     IErMin= 2 ErrMin= 8.85D-03
 ErrMax= 1.16D-02  0.00D+00 EMaxC= 1.00D-01 BMatC= 8.60D-01 BMatP= 2.73D+00
 IDIUse=3 WtCom= 8.84D-01 WtEn= 1.16D-01
 Coeff-Com: -0.529D+00 0.966D+00 0.563D+00
 Coeff-En:   0.000D+00 0.000D+00 0.100D+01
 Coeff:     -0.468D+00 0.854D+00 0.614D+00
 Gap=     0.065 Goal=   None    Shift=    0.000
 Gap=     0.120 Goal=   None    Shift=    0.000
 RMSDP=5.99D-04 MaxDP=1.39D-01 DE=-7.83D-01 OVMax= 8.17D-01

 Cycle   4  Pass 1  IDiag  1:
 RMSU=  4.60D-04    CP:  9.88D-01  2.47D+00  5.95D-01
 E= -3230.04012108635     Delta-E=       -0.161905522600 Rises=F Damp=F
 DIIS: error= 5.34D-03 at cycle   4 NSaved=   4.
 NSaved= 4 IEnMin= 4 EnMin= -3230.04012108635     IErMin= 4 ErrMin= 5.34D-03
 ErrMax= 5.34D-03  0.00D+00 EMaxC= 1.00D-01 BMatC= 2.38D-01 BMatP= 8.60D-01
 IDIUse=3 WtCom= 9.47D-01 WtEn= 5.34D-02
 Coeff-Com: -0.166D+00 0.272D+00 0.361D+00 0.533D+00
 Coeff-En:   0.000D+00 0.000D+00 0.191D+00 0.809D+00
 Coeff:     -0.157D+00 0.257D+00 0.352D+00 0.548D+00
 Gap=     0.028 Goal=   None    Shift=    0.000
 Gap=     0.151 Goal=   None    Shift=    0.000
 RMSDP=1.83D-04 MaxDP=6.42D-02 DE=-1.62D-01 OVMax= 2.03D-01

 Cycle   5  Pass 1  IDiag  1:
 RMSU=  1.24D-04    CP:  9.94D-01  2.47D+00  7.07D-01  8.20D-01
 E= -3230.08955994077     Delta-E=       -0.049438854419 Rises=F Damp=F
 DIIS: error= 9.49D-04 at cycle   5 NSaved=   5.
 NSaved= 5 IEnMin= 5 EnMin= -3230.08955994077     IErMin= 5 ErrMin= 9.49D-04
 ErrMax= 9.49D-04  0.00D+00 EMaxC= 1.00D-01 BMatC= 1.29D-02 BMatP= 2.38D-01
 IDIUse=3 WtCom= 9.91D-01 WtEn= 9.49D-03
 Coeff-Com: -0.295D-01 0.426D-01 0.126D+00 0.243D+00 0.618D+00
 Coeff-En:   0.000D+00 0.000D+00 0.000D+00 0.000D+00 0.100D+01
 Coeff:     -0.292D-01 0.421D-01 0.124D+00 0.241D+00 0.622D+00
 Gap=     0.048 Goal=   None    Shift=    0.000
 Gap=     0.135 Goal=   None    Shift=    0.000
 RMSDP=9.22D-05 MaxDP=1.78D-02 DE=-4.94D-02 OVMax= 1.96D-01

 Cycle   6  Pass 1  IDiag  1:
 RMSU=  7.75D-05    CP:  9.92D-01  2.49D+00  6.68D-01  8.82D-01  8.76D-01
 E= -3230.09641345386     Delta-E=       -0.006853513098 Rises=F Damp=F
 DIIS: error= 1.22D-03 at cycle   6 NSaved=   6.
 NSaved= 6 IEnMin= 6 EnMin= -3230.09641345386     IErMin= 5 ErrMin= 9.49D-04
 ErrMax= 1.22D-03  0.00D+00 EMaxC= 1.00D-01 BMatC= 8.73D-03 BMatP= 1.29D-02
 IDIUse=3 WtCom= 9.91D-01 WtEn= 9.49D-03
 Coeff-Com: -0.999D-03 0.216D-02 0.457D-01 0.114D-01 0.347D+00 0.595D+00
 Coeff-En:   0.000D+00 0.000D+00 0.000D+00 0.000D+00 0.000D+00 0.100D+01
 Coeff:     -0.990D-03 0.214D-02 0.452D-01 0.113D-01 0.343D+00 0.599D+00
 Gap=     0.064 Goal=   None    Shift=    0.000
 Gap=     0.137 Goal=   None    Shift=    0.000
 RMSDP=6.27D-05 MaxDP=1.45D-02 DE=-6.85D-03 OVMax= 9.51D-02

 Cycle   7  Pass 1  IDiag  1:
 RMSU=  3.74D-05    CP:  9.93D-01  2.52D+00  6.83D-01  8.67D-01  9.54D-01
                    CP:  1.59D+00
 E= -3230.10072488750     Delta-E=       -0.004311433635 Rises=F Damp=F
 DIIS: error= 9.73D-04 at cycle   7 NSaved=   7.
 NSaved= 7 IEnMin= 7 EnMin= -3230.10072488750     IErMin= 5 ErrMin= 9.49D-04
 ErrMax= 9.73D-04  0.00D+00 EMaxC= 1.00D-01 BMatC= 4.46D-03 BMatP= 8.73D-03
 IDIUse=3 WtCom= 9.91D-01 WtEn= 9.49D-03
 Coeff-Com:  0.261D-02-0.111D-02 0.294D-01-0.589D-01 0.805D-01 0.523D-01
 Coeff-Com:  0.895D+00
 Coeff-En:   0.000D+00 0.000D+00 0.000D+00 0.000D+00 0.000D+00 0.000D+00
 Coeff-En:   0.100D+01
 Coeff:      0.258D-02-0.110D-02 0.291D-01-0.583D-01 0.798D-01 0.518D-01
 Coeff:      0.896D+00
 Gap=     0.077 Goal=   None    Shift=    0.000
 Gap=     0.138 Goal=   None    Shift=    0.000
 RMSDP=6.48D-05 MaxDP=8.69D-03 DE=-4.31D-03 OVMax= 1.10D-01

 Cycle   8  Pass 1  IDiag  1:
 RMSU=  1.95D-05    CP:  9.93D-01  2.54D+00  6.94D-01  8.35D-01  9.05D-01
                    CP:  2.25D+00  1.75D+00
 E= -3230.10426023138     Delta-E=       -0.003535343880 Rises=F Damp=F
 DIIS: error= 7.05D-04 at cycle   8 NSaved=   8.
 NSaved= 8 IEnMin= 8 EnMin= -3230.10426023138     IErMin= 8 ErrMin= 7.05D-04
 ErrMax= 7.05D-04  0.00D+00 EMaxC= 1.00D-01 BMatC= 2.34D-03 BMatP= 4.46D-03
 IDIUse=3 WtCom= 9.93D-01 WtEn= 7.05D-03
 Coeff-Com: -0.473D-03 0.229D-02 0.322D-01 0.595D-03-0.134D-01-0.455D+00
 Coeff-Com:  0.139D+00 0.129D+01
 Coeff-En:   0.000D+00 0.000D+00 0.000D+00 0.000D+00 0.000D+00 0.000D+00
 Coeff-En:   0.000D+00 0.100D+01
 Coeff:     -0.469D-03 0.228D-02 0.320D-01 0.591D-03-0.133D-01-0.452D+00
 Coeff:      0.138D+00 0.129D+01
 Gap=     0.095 Goal=   None    Shift=    0.000
 Gap=     0.137 Goal=   None    Shift=    0.000
 RMSDP=8.25D-05 MaxDP=1.51D-02 DE=-3.54D-03 OVMax= 1.19D-01

 Cycle   9  Pass 1  IDiag  1:
 RMSU=  1.69D-05    CP:  9.95D-01  2.57D+00  7.19D-01  7.72D-01  8.17D-01
                    CP:  2.90D+00  2.88D+00  2.19D+00
 E= -3230.10681024420     Delta-E=       -0.002550012818 Rises=F Damp=F
 DIIS: error= 3.50D-04 at cycle   9 NSaved=   9.
 NSaved= 9 IEnMin= 9 EnMin= -3230.10681024420     IErMin= 9 ErrMin= 3.50D-04
 ErrMax= 3.50D-04  0.00D+00 EMaxC= 1.00D-01 BMatC= 4.28D-04 BMatP= 2.34D-03
 IDIUse=3 WtCom= 9.97D-01 WtEn= 3.50D-03
 Coeff-Com: -0.589D-03 0.839D-03 0.174D-01 0.301D-01 0.487D-01-0.160D+00
 Coeff-Com: -0.315D+00 0.543D+00 0.835D+00
 Coeff-En:   0.000D+00 0.000D+00 0.000D+00 0.000D+00 0.000D+00 0.000D+00
 Coeff-En:   0.000D+00 0.000D+00 0.100D+01
 Coeff:     -0.587D-03 0.836D-03 0.173D-01 0.300D-01 0.485D-01-0.159D+00
 Coeff:     -0.314D+00 0.541D+00 0.836D+00
 Gap=     0.102 Goal=   None    Shift=    0.000
 Gap=     0.136 Goal=   None    Shift=    0.000
 RMSDP=2.67D-05 MaxDP=3.85D-03 DE=-2.55D-03 OVMax= 4.17D-02

 Cycle  10  Pass 1  IDiag  1:
 RMSU=  9.21D-06    CP:  9.95D-01  2.57D+00  7.20D-01  7.52D-01  7.22D-01
                    CP:  3.00D+00  3.00D+00  2.87D+00  1.47D+00
 E= -3230.10724141678     Delta-E=       -0.000431172579 Rises=F Damp=F
 DIIS: error= 1.67D-04 at cycle  10 NSaved=  10.
 NSaved=10 IEnMin=10 EnMin= -3230.10724141678     IErMin=10 ErrMin= 1.67D-04
 ErrMax= 1.67D-04  0.00D+00 EMaxC= 1.00D-01 BMatC= 1.77D-04 BMatP= 4.28D-04
 IDIUse=3 WtCom= 9.98D-01 WtEn= 1.67D-03
 Coeff-Com: -0.168D-03 0.211D-03 0.258D-02 0.807D-02 0.452D-01 0.818D-01
 Coeff-Com: -0.125D+00-0.283D+00 0.376D+00 0.895D+00
 Coeff-En:   0.000D+00 0.000D+00 0.000D+00 0.000D+00 0.000D+00 0.000D+00
 Coeff-En:   0.000D+00 0.000D+00 0.000D+00 0.100D+01
 Coeff:     -0.167D-03 0.211D-03 0.258D-02 0.805D-02 0.452D-01 0.817D-01
 Coeff:     -0.125D+00-0.283D+00 0.375D+00 0.895D+00
 Gap=     0.103 Goal=   None    Shift=    0.000
 Gap=     0.135 Goal=   None    Shift=    0.000
 RMSDP=1.68D-05 MaxDP=3.73D-03 DE=-4.31D-04 OVMax= 2.38D-02

 Cycle  11  Pass 1  IDiag  1:
 RMSU=  8.79D-06    CP:  9.95D-01  2.58D+00  7.24D-01  7.40D-01  6.90D-01
                    CP:  3.00D+00  3.00D+00  3.00D+00  1.92D+00  1.75D+00
 E= -3230.10740916877     Delta-E=       -0.000167751992 Rises=F Damp=F
 DIIS: error= 1.43D-04 at cycle  11 NSaved=  11.
 NSaved=11 IEnMin=11 EnMin= -3230.10740916877     IErMin=11 ErrMin= 1.43D-04
 ErrMax= 1.43D-04  0.00D+00 EMaxC= 1.00D-01 BMatC= 8.72D-05 BMatP= 1.77D-04
 IDIUse=3 WtCom= 9.99D-01 WtEn= 1.43D-03
 Coeff-Com:  0.332D-03-0.404D-03 0.688D-04-0.501D-02 0.227D-01 0.830D-01
 Coeff-Com:  0.212D-01-0.323D+00-0.464D-01 0.378D+00 0.869D+00
 Coeff-En:   0.000D+00 0.000D+00 0.000D+00 0.000D+00 0.000D+00 0.000D+00
 Coeff-En:   0.000D+00 0.000D+00 0.000D+00 0.000D+00 0.100D+01
 Coeff:      0.332D-03-0.404D-03 0.687D-04-0.501D-02 0.227D-01 0.829D-01
 Coeff:      0.212D-01-0.323D+00-0.463D-01 0.378D+00 0.870D+00
 Gap=     0.104 Goal=   None    Shift=    0.000
 Gap=     0.135 Goal=   None    Shift=    0.000
 RMSDP=1.08D-05 MaxDP=1.76D-03 DE=-1.68D-04 OVMax= 1.43D-02

 Cycle  12  Pass 1  IDiag  1:
 RMSU=  4.33D-06    CP:  9.95D-01  2.58D+00  7.26D-01  7.31D-01  6.65D-01
                    CP:  3.00D+00  3.00D+00  3.00D+00  2.20D+00  2.29D+00
                    CP:  1.53D+00
 E= -3230.10747602730     Delta-E=       -0.000066858531 Rises=F Damp=F
 DIIS: error= 6.69D-05 at cycle  12 NSaved=  12.
 NSaved=12 IEnMin=12 EnMin= -3230.10747602730     IErMin=12 ErrMin= 6.69D-05
 ErrMax= 6.69D-05  0.00D+00 EMaxC= 1.00D-01 BMatC= 3.01D-05 BMatP= 8.72D-05
 IDIUse=1 WtCom= 1.00D+00 WtEn= 0.00D+00
 Coeff-Com:  0.583D-03-0.777D-03 0.114D-02-0.497D-02 0.463D-02 0.118D-01
 Coeff-Com:  0.283D-01-0.765D-01-0.104D+00-0.104D+00 0.392D+00 0.852D+00
 Coeff:      0.583D-03-0.777D-03 0.114D-02-0.497D-02 0.463D-02 0.118D-01
 Coeff:      0.283D-01-0.765D-01-0.104D+00-0.104D+00 0.392D+00 0.852D+00
 Gap=     0.106 Goal=   None    Shift=    0.000
 Gap=     0.135 Goal=   None    Shift=    0.000
 RMSDP=7.46D-06 MaxDP=1.62D-03 DE=-6.69D-05 OVMax= 8.80D-03

 Cycle  13  Pass 1  IDiag  1:
 RMSU=  2.09D-06    CP:  9.95D-01  2.58D+00  7.28D-01  7.25D-01  6.55D-01
                    CP:  3.00D+00  3.00D+00  3.00D+00  2.34D+00  2.65D+00
                    CP:  1.94D+00  1.52D+00
 E= -3230.10749985052     Delta-E=       -0.000023823222 Rises=F Damp=F
 DIIS: error= 1.83D-05 at cycle  13 NSaved=  13.
 NSaved=13 IEnMin=13 EnMin= -3230.10749985052     IErMin=13 ErrMin= 1.83D-05
 ErrMax= 1.83D-05  0.00D+00 EMaxC= 1.00D-01 BMatC= 4.97D-06 BMatP= 3.01D-05
 IDIUse=1 WtCom= 1.00D+00 WtEn= 0.00D+00
 Coeff-Com:  0.277D-03-0.386D-03 0.110D-02-0.768D-03 0.491D-03-0.125D-01
 Coeff-Com: -0.125D-02 0.439D-01-0.139D-01-0.120D+00-0.828D-01 0.359D+00
 Coeff-Com:  0.828D+00
 Coeff:      0.277D-03-0.386D-03 0.110D-02-0.768D-03 0.491D-03-0.125D-01
 Coeff:     -0.125D-02 0.439D-01-0.139D-01-0.120D+00-0.828D-01 0.359D+00
 Coeff:      0.828D+00
 Gap=     0.106 Goal=   None    Shift=    0.000
 Gap=     0.135 Goal=   None    Shift=    0.000
 RMSDP=3.04D-06 MaxDP=8.63D-04 DE=-2.38D-05 OVMax= 2.78D-03

 Cycle  14  Pass 1  IDiag  1:
 RMSU=  1.57D-06    CP:  9.95D-01  2.59D+00  7.29D-01  7.23D-01  6.54D-01
                    CP:  3.00D+00  3.00D+00  3.00D+00  2.38D+00  2.74D+00
                    CP:  2.08D+00  1.78D+00  1.54D+00
 E= -3230.10750627803     Delta-E=       -0.000006427510 Rises=F Damp=F
 DIIS: error= 1.38D-05 at cycle  14 NSaved=  14.
 NSaved=14 IEnMin=14 EnMin= -3230.10750627803     IErMin=14 ErrMin= 1.38D-05
 ErrMax= 1.38D-05  0.00D+00 EMaxC= 1.00D-01 BMatC= 1.91D-06 BMatP= 4.97D-06
 IDIUse=1 WtCom= 1.00D+00 WtEn= 0.00D+00
 Coeff-Com: -0.717D-04 0.931D-04 0.245D-03 0.131D-02-0.717D-04-0.798D-02
 Coeff-Com: -0.117D-01 0.454D-01 0.305D-01-0.206D-01-0.196D+00-0.112D+00
 Coeff-Com:  0.481D+00 0.789D+00
 Coeff:     -0.717D-04 0.931D-04 0.245D-03 0.131D-02-0.717D-04-0.798D-02
 Coeff:     -0.117D-01 0.454D-01 0.305D-01-0.206D-01-0.196D+00-0.112D+00
 Coeff:      0.481D+00 0.789D+00
 Gap=     0.106 Goal=   None    Shift=    0.000
 Gap=     0.134 Goal=   None    Shift=    0.000
 RMSDP=2.37D-06 MaxDP=5.65D-04 DE=-6.43D-06 OVMax= 2.61D-03

 Cycle  15  Pass 1  IDiag  1:
 RMSU=  8.59D-07    CP:  9.95D-01  2.59D+00  7.29D-01  7.22D-01  6.51D-01
                    CP:  3.00D+00  3.00D+00  3.00D+00  2.40D+00  2.79D+00
                    CP:  2.16D+00  2.03D+00  2.09D+00  1.75D+00
 E= -3230.10751034994     Delta-E=       -0.000004071913 Rises=F Damp=F
 DIIS: error= 1.13D-05 at cycle  15 NSaved=  15.
 NSaved=15 IEnMin=15 EnMin= -3230.10751034994     IErMin=15 ErrMin= 1.13D-05
 ErrMax= 1.13D-05  0.00D+00 EMaxC= 1.00D-01 BMatC= 7.05D-07 BMatP= 1.91D-06
 IDIUse=1 WtCom= 1.00D+00 WtEn= 0.00D+00
 Coeff-Com: -0.104D-03 0.143D-03-0.183D-03 0.636D-03-0.919D-04 0.734D-03
 Coeff-Com: -0.259D-02 0.455D-02 0.152D-01 0.220D-01-0.559D-01-0.125D+00
 Coeff-Com: -0.367D-01 0.285D+00 0.892D+00
 Coeff:     -0.104D-03 0.143D-03-0.183D-03 0.636D-03-0.919D-04 0.734D-03
 Coeff:     -0.259D-02 0.455D-02 0.152D-01 0.220D-01-0.559D-01-0.125D+00
 Coeff:     -0.367D-01 0.285D+00 0.892D+00
 Gap=     0.106 Goal=   None    Shift=    0.000
 Gap=     0.134 Goal=   None    Shift=    0.000
 RMSDP=1.93D-06 MaxDP=5.03D-04 DE=-4.07D-06 OVMax= 2.10D-03

 Cycle  16  Pass 1  IDiag  1:
 RMSU=  5.26D-07    CP:  9.95D-01  2.59D+00  7.29D-01  7.22D-01  6.48D-01
                    CP:  3.00D+00  3.00D+00  3.00D+00  2.42D+00  2.82D+00
                    CP:  2.21D+00  2.19D+00  2.49D+00  2.47D+00  1.84D+00
 E= -3230.10751297929     Delta-E=       -0.000002629349 Rises=F Damp=F
 DIIS: error= 9.23D-06 at cycle  16 NSaved=  16.
 NSaved=16 IEnMin=16 EnMin= -3230.10751297929     IErMin=16 ErrMin= 9.23D-06
 ErrMax= 9.23D-06  0.00D+00 EMaxC= 1.00D-01 BMatC= 4.58D-07 BMatP= 7.05D-07
 IDIUse=1 WtCom= 1.00D+00 WtEn= 0.00D+00
 Coeff-Com: -0.151D-04 0.229D-04-0.216D-03-0.433D-03-0.563D-04 0.564D-02
 Coeff-Com:  0.704D-02-0.281D-01-0.119D-01 0.155D-01 0.888D-01 0.330D-01
 Coeff-Com: -0.307D+00-0.404D+00 0.306D+00 0.130D+01
 Coeff:     -0.151D-04 0.229D-04-0.216D-03-0.433D-03-0.563D-04 0.564D-02
 Coeff:      0.704D-02-0.281D-01-0.119D-01 0.155D-01 0.888D-01 0.330D-01
 Coeff:     -0.307D+00-0.404D+00 0.306D+00 0.130D+01
 Gap=     0.106 Goal=   None    Shift=    0.000
 Gap=     0.134 Goal=   None    Shift=    0.000
 RMSDP=3.08D-06 MaxDP=7.95D-04 DE=-2.63D-06 OVMax= 3.25D-03

 Cycle  17  Pass 1  IDiag  1:
 RMSU=  9.89D-07    CP:  9.95D-01  2.59D+00  7.29D-01  7.21D-01  6.44D-01
                    CP:  3.00D+00  3.00D+00  3.00D+00  2.44D+00  2.88D+00
                    CP:  2.31D+00  2.42D+00  3.00D+00  3.00D+00  3.00D+00
                    CP:  2.49D+00
 E= -3230.10751621248     Delta-E=       -0.000003233190 Rises=F Damp=F
 DIIS: error= 7.59D-06 at cycle  17 NSaved=  17.
 NSaved=17 IEnMin=17 EnMin= -3230.10751621248     IErMin=17 ErrMin= 7.59D-06
 ErrMax= 7.59D-06  0.00D+00 EMaxC= 1.00D-01 BMatC= 2.65D-07 BMatP= 4.58D-07
 IDIUse=1 WtCom= 1.00D+00 WtEn= 0.00D+00
 Coeff-Com:  0.527D-04-0.734D-04 0.200D-04-0.459D-03-0.394D-04 0.138D-02
 Coeff-Com:  0.439D-02-0.157D-01-0.122D-01-0.690D-02 0.697D-01 0.949D-01
 Coeff-Com: -0.120D+00-0.374D+00-0.430D+00 0.575D+00 0.121D+01
 Coeff:      0.527D-04-0.734D-04 0.200D-04-0.459D-03-0.394D-04 0.138D-02
 Coeff:      0.439D-02-0.157D-01-0.122D-01-0.690D-02 0.697D-01 0.949D-01
 Coeff:     -0.120D+00-0.374D+00-0.430D+00 0.575D+00 0.121D+01
 Gap=     0.106 Goal=   None    Shift=    0.000
 Gap=     0.135 Goal=   None    Shift=    0.000
 RMSDP=3.30D-06 MaxDP=8.93D-04 DE=-3.23D-06 OVMax= 3.56D-03

 Cycle  18  Pass 1  IDiag  1:
 RMSU=  1.56D-06    CP:  9.95D-01  2.59D+00  7.29D-01  7.20D-01  6.40D-01
                    CP:  3.00D+00  3.00D+00  3.00D+00  2.47D+00  2.94D+00
                    CP:  2.42D+00  2.66D+00  3.00D+00  3.00D+00  3.00D+00
                    CP:  3.00D+00  3.00D+00
 E= -3230.10751857426     Delta-E=       -0.000002361776 Rises=F Damp=F
 DIIS: error= 4.56D-06 at cycle  18 NSaved=  18.
 NSaved=18 IEnMin=18 EnMin= -3230.10751857426     IErMin=18 ErrMin= 4.56D-06
 ErrMax= 4.56D-06  0.00D+00 EMaxC= 1.00D-01 BMatC= 1.32D-07 BMatP= 2.65D-07
 IDIUse=1 WtCom= 1.00D+00 WtEn= 0.00D+00
 Coeff-Com:  0.646D-04-0.980D-04 0.605D-04-0.371D-04 0.452D-03-0.170D-02
 Coeff-Com: -0.175D-02 0.871D-02 0.345D-02-0.582D-02-0.291D-01 0.461D-02
 Coeff-Com:  0.155D+00 0.128D+00-0.409D+00-0.675D+00 0.588D+00 0.123D+01
 Coeff:      0.646D-04-0.980D-04 0.605D-04-0.371D-04 0.452D-03-0.170D-02
 Coeff:     -0.175D-02 0.871D-02 0.345D-02-0.582D-02-0.291D-01 0.461D-02
 Coeff:      0.155D+00 0.128D+00-0.409D+00-0.675D+00 0.588D+00 0.123D+01
 Gap=     0.106 Goal=   None    Shift=    0.000
 Gap=     0.135 Goal=   None    Shift=    0.000
 RMSDP=3.02D-06 MaxDP=8.01D-04 DE=-2.36D-06 OVMax= 3.38D-03

 Cycle  19  Pass 1  IDiag  1:
 RMSU=  1.93D-06    CP:  9.95D-01  2.59D+00  7.29D-01  7.19D-01  6.37D-01
                    CP:  3.00D+00  3.00D+00  3.00D+00  2.49D+00  2.98D+00
                    CP:  2.50D+00  2.88D+00  3.00D+00  3.00D+00  3.00D+00
                    CP:  3.00D+00  3.00D+00  2.21D+00
 E= -3230.10751982482     Delta-E=       -0.000001250559 Rises=F Damp=F
 DIIS: error= 2.10D-06 at cycle  19 NSaved=  19.
 NSaved=19 IEnMin=19 EnMin= -3230.10751982482     IErMin=19 ErrMin= 2.10D-06
 ErrMax= 2.10D-06  0.00D+00 EMaxC= 1.00D-01 BMatC= 4.58D-08 BMatP= 1.32D-07
 IDIUse=1 WtCom= 1.00D+00 WtEn= 0.00D+00
 Coeff-Com:  0.266D-05-0.327D-05 0.459D-04 0.105D-03 0.103D-03-0.204D-02
 Coeff-Com: -0.255D-02 0.117D-01 0.547D-02-0.133D-02-0.399D-01-0.346D-01
 Coeff-Com:  0.122D+00 0.202D+00-0.431D-01-0.538D+00-0.175D+00 0.569D+00
 Coeff-Com:  0.925D+00
 Coeff:      0.266D-05-0.327D-05 0.459D-04 0.105D-03 0.103D-03-0.204D-02
 Coeff:     -0.255D-02 0.117D-01 0.547D-02-0.133D-02-0.399D-01-0.346D-01
 Coeff:      0.122D+00 0.202D+00-0.431D-01-0.538D+00-0.175D+00 0.569D+00
 Coeff:      0.925D+00
 Gap=     0.106 Goal=   None    Shift=    0.000
 Gap=     0.135 Goal=   None    Shift=    0.000
 RMSDP=1.52D-06 MaxDP=4.00D-04 DE=-1.25D-06 OVMax= 1.71D-03

 Cycle  20  Pass 1  IDiag  1:
 RMSU=  1.37D-07    CP:  9.95D-01  2.59D+00  7.29D-01  7.19D-01  6.35D-01
                    CP:  3.00D+00  3.00D+00  3.00D+00  2.50D+00  3.00D+00
                    CP:  2.54D+00  2.99D+00  3.00D+00  3.00D+00  3.00D+00
                    CP:  3.00D+00  3.00D+00  2.82D+00  1.49D+00
 E= -3230.10752010177     Delta-E=       -0.000000276956 Rises=F Damp=F
 DIIS: error= 1.32D-06 at cycle  20 NSaved=  20.
 NSaved=20 IEnMin=20 EnMin= -3230.10752010177     IErMin=20 ErrMin= 1.32D-06
 ErrMax= 1.32D-06  0.00D+00 EMaxC= 1.00D-01 BMatC= 1.51D-08 BMatP= 4.58D-08
 IDIUse=1 WtCom= 1.00D+00 WtEn= 0.00D+00
 Coeff-Com: -0.164D-04 0.261D-04 0.170D-04 0.347D-04 0.154D-04-0.202D-03
 Coeff-Com: -0.716D-03 0.248D-02 0.842D-03 0.161D-02-0.643D-02-0.183D-01
 Coeff-Com:  0.952D-02 0.540D-01 0.923D-01-0.334D-01-0.256D+00-0.131D+00
 Coeff-Com:  0.450D+00 0.836D+00
 Coeff:     -0.164D-04 0.261D-04 0.170D-04 0.347D-04 0.154D-04-0.202D-03
 Coeff:     -0.716D-03 0.248D-02 0.842D-03 0.161D-02-0.643D-02-0.183D-01
 Coeff:      0.952D-02 0.540D-01 0.923D-01-0.334D-01-0.256D+00-0.131D+00
 Coeff:      0.450D+00 0.836D+00
 Gap=     0.106 Goal=   None    Shift=    0.000
 Gap=     0.135 Goal=   None    Shift=    0.000
 RMSDP=5.74D-07 MaxDP=1.62D-04 DE=-2.77D-07 OVMax= 6.38D-04

 Cycle  21  Pass 1  IDiag  1:
 Restarting incremental Fock formation.
 E= -3230.10752014799     Delta-E=       -0.000000046213 Rises=F Damp=F
 DIIS: error= 1.02D-06 at cycle  21 NSaved=  20.
 NSaved=20 IEnMin=20 EnMin= -3230.10752014799     IErMin=20 ErrMin= 1.02D-06
 ErrMax= 1.02D-06  0.00D+00 EMaxC= 1.00D-01 BMatC= 5.49D-09 BMatP= 1.51D-08
 IDIUse=1 WtCom= 1.00D+00 WtEn= 0.00D+00
 Coeff-Com: -0.690D-06-0.100D-04-0.275D-04 0.353D-04 0.680D-03 0.205D-03
 Coeff-Com: -0.231D-02-0.136D-02 0.123D-02 0.935D-02-0.128D-02-0.297D-01
 Coeff-Com: -0.278D-01 0.543D-01 0.147D+00-0.861D-01-0.240D+00-0.282D-01
 Coeff-Com:  0.444D+00 0.760D+00
 Coeff:     -0.690D-06-0.100D-04-0.275D-04 0.353D-04 0.680D-03 0.205D-03
 Coeff:     -0.231D-02-0.136D-02 0.123D-02 0.935D-02-0.128D-02-0.297D-01
 Coeff:     -0.278D-01 0.543D-01 0.147D+00-0.861D-01-0.240D+00-0.282D-01
 Coeff:      0.444D+00 0.760D+00
 Gap=     0.106 Goal=   None    Shift=    0.000
 Gap=     0.135 Goal=   None    Shift=    0.000
 RMSDP=2.08D-07 MaxDP=5.60D-05 DE=-4.62D-08 OVMax= 2.18D-04

 Cycle  22  Pass 1  IDiag  1:
 RMSU=  2.08D-07    CP:  1.00D+00
 E= -3230.10752015675     Delta-E=       -0.000000008758 Rises=F Damp=F
 DIIS: error= 6.91D-07 at cycle  22 NSaved=  20.
 NSaved=20 IEnMin=20 EnMin= -3230.10752015675     IErMin=20 ErrMin= 6.91D-07
 ErrMax= 6.91D-07  0.00D+00 EMaxC= 1.00D-01 BMatC= 1.75D-09 BMatP= 5.49D-09
 IDIUse=1 WtCom= 1.00D+00 WtEn= 0.00D+00
 Coeff-Com:  0.492D-05 0.706D-05 0.411D-04 0.323D-03 0.225D-04-0.150D-02
 Coeff-Com: -0.598D-03 0.570D-05 0.590D-02 0.297D-02-0.153D-01-0.254D-01
 Coeff-Com: -0.707D-02 0.796D-01 0.355D-01-0.665D-01-0.148D+00-0.697D-01
 Coeff-Com:  0.355D+00 0.855D+00
 Coeff:      0.492D-05 0.706D-05 0.411D-04 0.323D-03 0.225D-04-0.150D-02
 Coeff:     -0.598D-03 0.570D-05 0.590D-02 0.297D-02-0.153D-01-0.254D-01
 Coeff:     -0.707D-02 0.796D-01 0.355D-01-0.665D-01-0.148D+00-0.697D-01
 Coeff:      0.355D+00 0.855D+00
 Gap=     0.106 Goal=   None    Shift=    0.000
 Gap=     0.135 Goal=   None    Shift=    0.000
 RMSDP=8.83D-08 MaxDP=2.41D-05 DE=-8.76D-09 OVMax= 8.46D-05

 Cycle  23  Pass 1  IDiag  1:
 RMSU=  2.88D-08    CP:  1.00D+00  1.40D+00
 E= -3230.10752015949     Delta-E=       -0.000000002741 Rises=F Damp=F
 DIIS: error= 4.48D-07 at cycle  23 NSaved=  20.
 NSaved=20 IEnMin=20 EnMin= -3230.10752015949     IErMin=20 ErrMin= 4.48D-07
 ErrMax= 4.48D-07  0.00D+00 EMaxC= 1.00D-01 BMatC= 5.41D-10 BMatP= 1.75D-09
 IDIUse=1 WtCom= 1.00D+00 WtEn= 0.00D+00
 Coeff-Com:  0.615D-05 0.182D-05-0.749D-04-0.140D-03 0.105D-03 0.292D-03
 Coeff-Com: -0.196D-03-0.561D-03 0.535D-03 0.338D-02-0.776D-04-0.213D-01
 Coeff-Com: -0.129D-01 0.396D-01 0.520D-01-0.466D-01-0.179D+00-0.106D+00
 Coeff-Com:  0.341D+00 0.930D+00
 Coeff:      0.615D-05 0.182D-05-0.749D-04-0.140D-03 0.105D-03 0.292D-03
 Coeff:     -0.196D-03-0.561D-03 0.535D-03 0.338D-02-0.776D-04-0.213D-01
 Coeff:     -0.129D-01 0.396D-01 0.520D-01-0.466D-01-0.179D+00-0.106D+00
 Coeff:      0.341D+00 0.930D+00
 Gap=     0.106 Goal=   None    Shift=    0.000
 Gap=     0.135 Goal=   None    Shift=    0.000
 RMSDP=4.44D-08 MaxDP=1.16D-05 DE=-2.74D-09 OVMax= 4.12D-05

 Cycle  24  Pass 1  IDiag  1:
 RMSU=  1.72D-08    CP:  1.00D+00  1.56D+00  1.79D+00
 E= -3230.10752016040     Delta-E=       -0.000000000911 Rises=F Damp=F
 DIIS: error= 3.20D-07 at cycle  24 NSaved=  20.
 NSaved=20 IEnMin=20 EnMin= -3230.10752016040     IErMin=20 ErrMin= 3.20D-07
 ErrMax= 3.20D-07  0.00D+00 EMaxC= 1.00D-01 BMatC= 2.64D-10 BMatP= 5.41D-10
 IDIUse=1 WtCom= 1.00D+00 WtEn= 0.00D+00
 Coeff-Com:  0.281D-04-0.569D-04-0.120D-04 0.455D-03 0.313D-03 0.879D-04
 Coeff-Com: -0.214D-02-0.869D-03 0.756D-02 0.987D-02-0.795D-02-0.355D-01
 Coeff-Com:  0.309D-02 0.478D-01 0.393D-01-0.525D-01-0.178D+00-0.161D+00
 Coeff-Com:  0.416D+00 0.913D+00
 Coeff:      0.281D-04-0.569D-04-0.120D-04 0.455D-03 0.313D-03 0.879D-04
 Coeff:     -0.214D-02-0.869D-03 0.756D-02 0.987D-02-0.795D-02-0.355D-01
 Coeff:      0.309D-02 0.478D-01 0.393D-01-0.525D-01-0.178D+00-0.161D+00
 Coeff:      0.416D+00 0.913D+00
 Gap=     0.106 Goal=   None    Shift=    0.000
 Gap=     0.135 Goal=   None    Shift=    0.000
 RMSDP=2.95D-08 MaxDP=5.97D-06 DE=-9.11D-10 OVMax= 3.08D-05

 Cycle  25  Pass 1  IDiag  1:
 RMSU=  2.80D-08    CP:  1.00D+00  1.59D+00  1.78D+00  5.93D-01
 E= -3230.10752016060     Delta-E=       -0.000000000200 Rises=F Damp=F
 DIIS: error= 2.17D-07 at cycle  25 NSaved=  20.
 NSaved=20 IEnMin=20 EnMin= -3230.10752016060     IErMin=20 ErrMin= 2.17D-07
 ErrMax= 2.17D-07  0.00D+00 EMaxC= 1.00D-01 BMatC= 1.35D-10 BMatP= 2.64D-10
 IDIUse=1 WtCom= 1.00D+00 WtEn= 0.00D+00
 Coeff-Com: -0.393D-04-0.440D-05 0.193D-03 0.828D-04 0.108D-04-0.106D-02
 Coeff-Com: -0.725D-03 0.193D-02 0.401D-02 0.559D-02-0.959D-02-0.137D-01
 Coeff-Com:  0.310D-03 0.299D-01 0.441D-01-0.319D-01-0.184D+00-0.165D+00
 Coeff-Com:  0.339D+00 0.981D+00
 Coeff:     -0.393D-04-0.440D-05 0.193D-03 0.828D-04 0.108D-04-0.106D-02
 Coeff:     -0.725D-03 0.193D-02 0.401D-02 0.559D-02-0.959D-02-0.137D-01
 Coeff:      0.310D-03 0.299D-01 0.441D-01-0.319D-01-0.184D+00-0.165D+00
 Coeff:      0.339D+00 0.981D+00
 Gap=     0.106 Goal=   None    Shift=    0.000
 Gap=     0.135 Goal=   None    Shift=    0.000
 RMSDP=2.14D-08 MaxDP=5.50D-06 DE=-2.00D-10 OVMax= 1.64D-05

 Cycle  26  Pass 1  IDiag  1:
 RMSU=  8.35D-09    CP:  1.00D+00  1.65D+00  2.13D+00  1.05D+00  8.52D-01
 E= -3230.10752016098     Delta-E=       -0.000000000386 Rises=F Damp=F
 DIIS: error= 1.56D-07 at cycle  26 NSaved=  20.
 NSaved=20 IEnMin=20 EnMin= -3230.10752016098     IErMin=20 ErrMin= 1.56D-07
 ErrMax= 1.56D-07  0.00D+00 EMaxC= 1.00D-01 BMatC= 3.79D-11 BMatP= 1.35D-10
 IDIUse=1 WtCom= 1.00D+00 WtEn= 0.00D+00
 Coeff-Com:  0.111D-05-0.213D-04 0.503D-05 0.907D-04-0.919D-04-0.475D-03
 Coeff-Com: -0.103D-02 0.142D-03 0.674D-02 0.345D-02-0.104D-01-0.137D-01
 Coeff-Com:  0.674D-02 0.453D-01 0.376D-01-0.586D-01-0.234D+00-0.122D+00
 Coeff-Com:  0.467D+00 0.873D+00
 Coeff:      0.111D-05-0.213D-04 0.503D-05 0.907D-04-0.919D-04-0.475D-03
 Coeff:     -0.103D-02 0.142D-03 0.674D-02 0.345D-02-0.104D-01-0.137D-01
 Coeff:      0.674D-02 0.453D-01 0.376D-01-0.586D-01-0.234D+00-0.122D+00
 Coeff:      0.467D+00 0.873D+00
 Gap=     0.106 Goal=   None    Shift=    0.000
 Gap=     0.135 Goal=   None    Shift=    0.000
 RMSDP=8.70D-09 MaxDP=1.97D-06 DE=-3.86D-10 OVMax= 9.67D-06

 Cycle  27  Pass 1  IDiag  1:
 RMSU=  3.01D-09    CP:  1.00D+00  1.68D+00  2.22D+00  1.11D+00  9.74D-01
                    CP:  1.54D+00
 E= -3230.10752016098     Delta-E=        0.000000000004 Rises=F Damp=F
 DIIS: error= 1.14D-07 at cycle  27 NSaved=  20.
 NSaved=20 IEnMin=19 EnMin= -3230.10752016098     IErMin=20 ErrMin= 1.14D-07
 ErrMax= 1.14D-07  0.00D+00 EMaxC= 1.00D-01 BMatC= 1.63D-11 BMatP= 3.79D-11
 IDIUse=1 WtCom= 1.00D+00 WtEn= 0.00D+00
 Coeff-Com: -0.797D-04-0.708D-04-0.699D-04 0.529D-03 0.570D-03-0.120D-02
 Coeff-Com: -0.256D-02-0.185D-02 0.554D-02 0.690D-02-0.387D-02-0.166D-01
 Coeff-Com: -0.126D-01 0.285D-01 0.835D-01 0.272D-01-0.231D+00-0.332D+00
 Coeff-Com:  0.155D+00 0.129D+01
 Coeff:     -0.797D-04-0.708D-04-0.699D-04 0.529D-03 0.570D-03-0.120D-02
 Coeff:     -0.256D-02-0.185D-02 0.554D-02 0.690D-02-0.387D-02-0.166D-01
 Coeff:     -0.126D-01 0.285D-01 0.835D-01 0.272D-01-0.231D+00-0.332D+00
 Coeff:      0.155D+00 0.129D+01
 Gap=     0.106 Goal=   None    Shift=    0.000
 Gap=     0.135 Goal=   None    Shift=    0.000
 RMSDP=9.37D-09 MaxDP=2.23D-06 DE= 3.64D-12 OVMax= 1.00D-05

 Cycle  28  Pass 1  IDiag  1:
 RMSU=  2.49D-09    CP:  1.00D+00  1.71D+00  2.29D+00  1.21D+00  9.67D-01
                    CP:  2.14D+00  1.89D+00
 E= -3230.10752016117     Delta-E=       -0.000000000193 Rises=F Damp=F
 DIIS: error= 7.08D-08 at cycle  28 NSaved=  20.
 NSaved=20 IEnMin=20 EnMin= -3230.10752016117     IErMin=20 ErrMin= 7.08D-08
 ErrMax= 7.08D-08  0.00D+00 EMaxC= 1.00D-01 BMatC= 9.47D-12 BMatP= 1.63D-11
 IDIUse=1 WtCom= 1.00D+00 WtEn= 0.00D+00
 Coeff-Com: -0.312D-04-0.497D-04 0.210D-03 0.410D-03 0.851D-04-0.807D-03
 Coeff-Com: -0.353D-02-0.342D-03 0.723D-02 0.487D-02-0.775D-02-0.250D-01
 Coeff-Com: -0.926D-02 0.556D-01 0.127D+00-0.391D-01-0.312D+00-0.380D+00
 Coeff-Com:  0.543D+00 0.104D+01
 Coeff:     -0.312D-04-0.497D-04 0.210D-03 0.410D-03 0.851D-04-0.807D-03
 Coeff:     -0.353D-02-0.342D-03 0.723D-02 0.487D-02-0.775D-02-0.250D-01
 Coeff:     -0.926D-02 0.556D-01 0.127D+00-0.391D-01-0.312D+00-0.380D+00
 Coeff:      0.543D+00 0.104D+01
 Gap=     0.106 Goal=   None    Shift=    0.000
 Gap=     0.135 Goal=   None    Shift=    0.000
 RMSDP=5.08D-09 MaxDP=1.27D-06 DE=-1.93D-10 OVMax= 6.76D-06

 Cycle  29  Pass 1  IDiag  1:
 RMSU=  1.41D-09    CP:  1.00D+00  1.72D+00  2.27D+00  1.17D+00  1.04D+00
                    CP:  2.43D+00  2.59D+00  1.84D+00
 E= -3230.10752016119     Delta-E=       -0.000000000018 Rises=F Damp=F
 DIIS: error= 4.19D-08 at cycle  29 NSaved=  20.
 NSaved=20 IEnMin=20 EnMin= -3230.10752016119     IErMin=20 ErrMin= 4.19D-08
 ErrMax= 4.19D-08  0.00D+00 EMaxC= 1.00D-01 BMatC= 3.45D-12 BMatP= 9.47D-12
 IDIUse=1 WtCom= 1.00D+00 WtEn= 0.00D+00
 Coeff-Com:  0.120D-05 0.352D-04 0.162D-03 0.178D-03-0.161D-03-0.144D-02
 Coeff-Com: -0.116D-02 0.233D-02 0.384D-02 0.267D-03-0.107D-01-0.153D-01
 Coeff-Com:  0.159D-03 0.572D-01 0.588D-01-0.198D-01-0.239D+00-0.268D+00
 Coeff-Com:  0.456D+00 0.976D+00
 Coeff:      0.120D-05 0.352D-04 0.162D-03 0.178D-03-0.161D-03-0.144D-02
 Coeff:     -0.116D-02 0.233D-02 0.384D-02 0.267D-03-0.107D-01-0.153D-01
 Coeff:      0.159D-03 0.572D-01 0.588D-01-0.198D-01-0.239D+00-0.268D+00
 Coeff:      0.456D+00 0.976D+00
 Gap=     0.106 Goal=   None    Shift=    0.000
 Gap=     0.135 Goal=   None    Shift=    0.000
 RMSDP=3.00D-09 MaxDP=8.87D-07 DE=-1.82D-11 OVMax= 4.68D-06

 Error on total polarization charges =  0.02058
 SCF Done:  E(UM062X) =  -3230.10752016     A.U. after   29 cycles
            NFock= 29  Conv=0.30D-08     -V/T= 2.0049
 <Sx>= 0.0000 <Sy>= 0.0000 <Sz>= 0.5000 <S**2>= 0.7687 S= 0.5093
 <L.S>=  0.00000000000    
 KE= 3.214257894104D+03 PE=-2.531971456144D+04 EE= 1.001687330993D+04
 Annihilation of the first spin contaminant:
 S**2 before annihilation     0.7687,   after     0.7502
 Leave Link  502 at Thu Oct  9 11:00:29 2025, MaxMem= 30870077440 cpu:          294861.0 elap:            4665.3
 (Enter /work/home/accqbws0vm/apprepo/gaussian/16-hy/scripts/../app/g16/l601.exe)
 Copying SCF densities to generalized density rwf, IOpCl= 1 IROHF=0.

 **********************************************************************

            Population analysis using the SCF density.

 **********************************************************************

 Orbital symmetries:
 Alpha Orbitals:
       Occupied  (A) (A) (A) (A) (A) (A) (A) (A) (A) (A) (A) (A)
                 (A) (A) (A) (A) (A) (A) (A) (A) (A) (A) (A) (A)
                 (A) (A) (A) (A) (A) (A) (A) (A) (A) (A) (A) (A)
                 (A) (A) (A) (A) (A) (A) (A) (A) (A) (A) (A) (A)
                 (A) (A) (A) (A) (A) (A) (A) (A) (A) (A) (A) (A)
                 (A) (A) (A) (A) (A) (A) (A) (A) (A) (A) (A) (A)
                 (A) (A) (A) (A) (A) (A) (A) (A) (A) (A) (A) (A)
                 (A) (A) (A) (A) (A) (A) (A) (A) (A) (A) (A) (A)
                 (A) (A) (A) (A) (A) (A) (A) (A) (A) (A) (A) (A)
                 (A) (A) (A) (A) (A) (A) (A) (A) (A) (A) (A) (A)
                 (A) (A) (A) (A) (A) (A) (A) (A) (A) (A) (A) (A)
                 (A) (A) (A) (A) (A) (A) (A) (A) (A) (A) (A) (A)
                 (A) (A) (A) (A) (A) (A) (A) (A) (A) (A) (A) (A)
                 (A) (A) (A) (A) (A) (A) (A) (A) (A) (A) (A) (A)
                 (A) (A) (A) (A) (A) (A) (A) (A) (A) (A) (A) (A)
                 (A) (A) (A) (A) (A) (A) (A) (A) (A) (A) (A) (A)
                 (A) (A) (A) (A) (A) (A) (A) (A) (A) (A) (A) (A)
                 (A) (A) (A) (A) (A) (A) (A) (A) (A) (A) (A) (A)
                 (A) (A) (A) (A)
       Virtual   (A) (A) (A) (A) (A) (A) (A) (A) (A) (A) (A) (A)
                 (A) (A) (A) (A) (A) (A) (A) (A) (A) (A) (A) (A)
                 (A) (A) (A) (A) (A) (A) (A) (A) (A) (A) (A) (A)
                 (A) (A) (A) (A) (A) (A) (A) (A) (A) (A) (A) (A)
                 (A) (A) (A) (A) (A) (A) (A) (A) (A) (A) (A) (A)
                 (A) (A) (A) (A) (A) (A) (A) (A) (A) (A) (A) (A)
                 (A) (A) (A) (A) (A) (A) (A) (A) (A) (A) (A) (A)
                 (A) (A) (A) (A) (A) (A) (A) (A) (A) (A) (A) (A)
                 (A) (A) (A) (A) (A) (A) (A) (A) (A) (A) (A) (A)
                 (A) (A) (A) (A) (A) (A) (A) (A) (A) (A) (A) (A)
                 (A) (A) (A) (A) (A) (A) (A) (A) (A) (A) (A) (A)
                 (A) (A) (A) (A) (A) (A) (A) (A) (A) (A) (A) (A)
                 (A) (A) (A) (A) (A) (A) (A) (A) (A) (A) (A) (A)
                 (A) (A) (A) (A) (A) (A) (A) (A) (A) (A) (A) (A)
                 (A) (A) (A) (A) (A) (A) (A) (A) (A) (A) (A) (A)
                 (A) (A) (A) (A) (A) (A) (A) (A) (A) (A) (A) (A)
                 (A) (A) (A) (A) (A) (A) (A) (A) (A) (A) (A) (A)
                 (A) (A) (A) (A) (A) (A) (A) (A) (A) (A) (A) (A)
                 (A) (A) (A) (A) (A) (A) (A) (A) (A) (A) (A) (A)
                 (A) (A) (A) (A) (A) (A) (A) (A) (A) (A) (A) (A)
                 (A) (A) (A) (A) (A) (A) (A) (A) (A) (A) (A) (A)
                 (A) (A) (A) (A) (A) (A) (A) (A) (A) (A) (A) (A)
                 (A) (A) (A) (A) (A) (A) (A) (A) (A) (A) (A) (A)
                 (A) (A) (A) (A) (A) (A) (A) (A) (A) (A) (A) (A)
                 (A) (A) (A) (A) (A) (A) (A) (A) (A) (A) (A) (A)
                 (A) (A) (A) (A) (A) (A) (A) (A) (A) (A) (A) (A)
                 (A) (A) (A) (A) (A) (A) (A) (A) (A) (A) (A) (A)
                 (A) (A) (A) (A) (A) (A) (A) (A) (A) (A) (A) (A)
                 (A) (A) (A) (A) (A) (A) (A) (A) (A) (A) (A) (A)
                 (A) (A) (A) (A) (A) (A) (A) (A) (A) (A) (A) (A)
                 (A) (A) (A) (A) (A) (A) (A) (A) (A) (A) (A) (A)
                 (A) (A) (A) (A) (A) (A) (A) (A) (A) (A) (A) (A)
                 (A) (A) (A) (A) (A) (A) (A) (A) (A) (A) (A) (A)
                 (A) (A) (A) (A) (A) (A) (A) (A) (A) (A) (A) (A)
                 (A) (A) (A) (A) (A) (A) (A) (A) (A) (A) (A) (A)
                 (A) (A) (A) (A) (A) (A) (A) (A) (A) (A) (A) (A)
                 (A) (A) (A) (A) (A) (A) (A) (A) (A) (A) (A) (A)
                 (A) (A) (A) (A) (A) (A) (A) (A) (A) (A) (A) (A)
                 (A) (A) (A) (A) (A) (A) (A) (A) (A) (A) (A) (A)
                 (A) (A) (A) (A) (A) (A) (A) (A) (A) (A) (A) (A)
                 (A) (A) (A) (A) (A) (A) (A) (A) (A) (A) (A) (A)
                 (A) (A) (A) (A) (A) (A) (A) (A) (A) (A) (A) (A)
                 (A) (A) (A) (A) (A) (A) (A) (A) (A) (A) (A) (A)
                 (A) (A) (A) (A) (A) (A) (A) (A) (A) (A) (A) (A)
                 (A) (A) (A) (A) (A) (A) (A) (A) (A) (A) (A) (A)
                 (A) (A) (A) (A) (A) (A) (A) (A) (A) (A) (A) (A)
                 (A) (A) (A) (A) (A) (A) (A) (A) (A) (A) (A) (A)
                 (A) (A) (A) (A) (A) (A) (A) (A) (A) (A) (A) (A)
                 (A) (A) (A) (A) (A) (A) (A) (A) (A) (A) (A) (A)
                 (A) (A) (A) (A) (A) (A) (A) (A) (A) (A) (A) (A)
                 (A) (A) (A) (A) (A) (A) (A) (A) (A) (A) (A) (A)
                 (A) (A) (A) (A) (A) (A) (A) (A) (A) (A) (A) (A)
                 (A) (A) (A) (A) (A) (A) (A) (A) (A) (A) (A) (A)
                 (A) (A) (A) (A) (A) (A) (A) (A) (A) (A) (A) (A)
                 (A) (A) (A) (A) (A) (A) (A) (A) (A) (A) (A) (A)
                 (A) (A) (A) (A) (A) (A) (A) (A) (A) (A) (A) (A)
                 (A) (A) (A) (A) (A) (A) (A) (A) (A) (A) (A) (A)
                 (A) (A) (A) (A) (A) (A) (A) (A) (A) (A) (A) (A)
                 (A) (A) (A) (A) (A) (A) (A) (A) (A) (A) (A) (A)
                 (A) (A) (A) (A) (A) (A) (A) (A) (A) (A) (A) (A)
                 (A) (A) (A) (A) (A) (A) (A) (A) (A) (A) (A) (A)
                 (A) (A) (A) (A) (A) (A) (A) (A) (A) (A) (A) (A)
                 (A) (A) (A) (A) (A) (A) (A) (A) (A) (A) (A) (A)
                 (A) (A) (A) (A) (A) (A) (A) (A) (A) (A) (A) (A)
                 (A) (A) (A) (A) (A) (A) (A) (A) (A) (A) (A) (A)
                 (A) (A) (A) (A) (A) (A) (A) (A) (A) (A) (A) (A)
                 (A) (A) (A) (A) (A) (A) (A) (A) (A) (A) (A) (A)
                 (A) (A) (A) (A) (A) (A) (A) (A) (A) (A) (A) (A)
                 (A) (A) (A) (A) (A) (A) (A) (A) (A) (A) (A) (A)
                 (A) (A) (A) (A) (A) (A) (A) (A) (A) (A) (A) (A)
                 (A) (A) (A) (A) (A) (A) (A) (A) (A) (A) (A) (A)
                 (A) (A) (A) (A) (A) (A) (A) (A) (A) (A) (A) (A)
                 (A) (A) (A) (A) (A) (A) (A) (A) (A) (A) (A) (A)
                 (A) (A) (A) (A) (A) (A) (A) (A) (A) (A) (A) (A)
                 (A) (A) (A) (A) (A) (A) (A) (A) (A) (A) (A) (A)
                 (A) (A) (A) (A) (A) (A) (A) (A) (A) (A) (A) (A)
                 (A) (A) (A) (A) (A) (A) (A) (A) (A) (A) (A) (A)
                 (A) (A) (A) (A) (A) (A) (A) (A) (A) (A) (A) (A)
                 (A) (A) (A) (A) (A) (A) (A) (A) (A) (A) (A) (A)
                 (A) (A) (A) (A) (A) (A) (A) (A) (A) (A) (A) (A)
                 (A) (A) (A) (A) (A) (A) (A) (A) (A) (A) (A) (A)
                 (A) (A) (A) (A) (A) (A) (A) (A) (A) (A) (A) (A)
                 (A) (A) (A) (A) (A) (A) (A) (A) (A) (A) (A) (A)
                 (A) (A) (A) (A) (A) (A) (A) (A) (A) (A) (A) (A)
                 (A) (A) (A) (A) (A) (A) (A) (A) (A) (A) (A) (A)
                 (A) (A) (A) (A) (A) (A) (A) (A) (A) (A) (A) (A)
                 (A) (A) (A) (A) (A) (A) (A) (A) (A) (A) (A) (A)
                 (A) (A) (A) (A) (A) (A) (A) (A) (A) (A) (A) (A)
                 (A) (A) (A) (A) (A) (A) (A) (A) (A) (A) (A) (A)
                 (A) (A) (A) (A) (A) (A) (A) (A) (A) (A) (A) (A)
                 (A) (A) (A) (A) (A) (A) (A) (A) (A) (A) (A) (A)
                 (A) (A) (A) (A) (A) (A) (A) (A) (A) (A) (A) (A)
                 (A) (A) (A) (A) (A) (A) (A) (A) (A) (A) (A) (A)
                 (A) (A) (A) (A) (A) (A) (A) (A) (A) (A) (A) (A)
                 (A) (A) (A) (A) (A) (A) (A) (A) (A) (A) (A) (A)
                 (A) (A) (A) (A) (A) (A) (A) (A) (A) (A) (A) (A)
                 (A) (A) (A) (A) (A) (A) (A) (A) (A) (A) (A) (A)
                 (A) (A) (A) (A) (A) (A) (A) (A) (A) (A) (A) (A)
                 (A) (A) (A) (A) (A) (A) (A) (A) (A) (A) (A) (A)
                 (A) (A) (A) (A) (A) (A) (A) (A) (A) (A) (A) (A)
                 (A) (A) (A) (A) (A) (A) (A) (A) (A) (A) (A) (A)
                 (A) (A) (A) (A) (A) (A) (A) (A) (A) (A) (A) (A)
                 (A) (A) (A) (A) (A) (A) (A) (A) (A) (A) (A) (A)
                 (A) (A) (A) (A) (A) (A) (A) (A) (A) (A) (A) (A)
                 (A) (A) (A) (A) (A) (A) (A) (A) (A) (A) (A) (A)
                 (A) (A) (A) (A) (A) (A) (A) (A) (A) (A) (A) (A)
                 (A) (A) (A) (A) (A) (A) (A) (A) (A) (A) (A) (A)
                 (A) (A) (A) (A) (A) (A) (A) (A) (A) (A) (A) (A)
                 (A) (A) (A) (A) (A) (A) (A) (A) (A) (A) (A) (A)
                 (A) (A) (A) (A) (A) (A) (A) (A) (A) (A) (A) (A)
                 (A) (A) (A) (A) (A) (A) (A) (A) (A) (A) (A) (A)
                 (A) (A) (A) (A) (A) (A) (A) (A) (A) (A) (A) (A)
                 (A) (A) (A) (A) (A) (A) (A) (A) (A) (A) (A) (A)
                 (A) (A) (A) (A) (A) (A) (A) (A) (A) (A) (A) (A)
                 (A) (A) (A) (A) (A) (A) (A) (A) (A) (A) (A) (A)
                 (A) (A) (A) (A) (A) (A) (A) (A) (A) (A) (A) (A)
                 (A) (A) (A) (A) (A) (A) (A) (A) (A) (A) (A) (A)
                 (A) (A) (A) (A) (A) (A) (A) (A) (A) (A) (A) (A)
                 (A) (A) (A) (A) (A) (A) (A) (A) (A) (A) (A) (A)
                 (A) (A) (A) (A) (A) (A) (A) (A) (A) (A) (A) (A)
                 (A) (A) (A) (A) (A) (A) (A) (A) (A) (A) (A) (A)
                 (A) (A) (A) (A) (A) (A) (A) (A) (A) (A) (A) (A)
                 (A) (A) (A) (A) (A) (A) (A) (A) (A) (A) (A) (A)
                 (A) (A) (A) (A) (A) (A) (A) (A) (A) (A) (A) (A)
                 (A) (A) (A) (A) (A) (A) (A) (A) (A) (A) (A) (A)
                 (A) (A) (A) (A) (A) (A) (A) (A) (A) (A) (A) (A)
                 (A) (A) (A) (A) (A) (A) (A) (A) (A) (A) (A) (A)
                 (A) (A) (A) (A) (A) (A) (A) (A) (A) (A) (A) (A)
                 (A) (A) (A) (A) (A) (A) (A) (A) (A) (A) (A) (A)
                 (A) (A) (A) (A) (A) (A) (A) (A) (A) (A) (A) (A)
                 (A) (A) (A) (A) (A) (A) (A) (A) (A) (A) (A) (A)
                 (A) (A) (A) (A) (A) (A) (A) (A) (A) (A) (A) (A)
                 (A) (A) (A) (A) (A) (A) (A) (A) (A) (A) (A) (A)
                 (A) (A) (A) (A) (A) (A) (A) (A) (A) (A) (A) (A)
                 (A) (A) (A) (A) (A) (A) (A) (A) (A) (A) (A) (A)
                 (A) (A) (A) (A) (A) (A) (A) (A) (A) (A) (A) (A)
                 (A) (A) (A) (A) (A) (A) (A) (A) (A) (A) (A) (A)
                 (A) (A) (A) (A) (A) (A) (A) (A) (A) (A) (A) (A)
                 (A) (A) (A) (A) (A) (A) (A) (A) (A) (A) (A) (A)
                 (A) (A) (A) (A) (A) (A) (A) (A) (A) (A) (A) (A)
                 (A) (A) (A) (A) (A) (A) (A) (A) (A) (A) (A) (A)
                 (A) (A) (A) (A) (A) (A) (A) (A) (A) (A) (A) (A)
                 (A) (A) (A) (A) (A) (A) (A) (A) (A) (A) (A) (A)
                 (A) (A) (A) (A) (A) (A) (A) (A) (A) (A) (A) (A)
                 (A) (A) (A) (A) (A) (A) (A) (A) (A) (A) (A) (A)
                 (A) (A) (A) (A) (A) (A) (A) (A) (A) (A) (A) (A)
                 (A) (A) (A) (A) (A) (A) (A) (A) (A) (A) (A) (A)
                 (A) (A) (A) (A) (A) (A) (A) (A) (A) (A) (A) (A)
                 (A) (A) (A) (A) (A) (A) (A) (A) (A) (A) (A) (A)
                 (A) (A) (A) (A) (A) (A) (A) (A) (A) (A) (A) (A)
                 (A) (A) (A) (A) (A) (A) (A) (A) (A) (A) (A) (A)
                 (A) (A) (A) (A) (A) (A) (A) (A) (A) (A) (A) (A)
                 (A) (A) (A) (A) (A) (A) (A) (A) (A) (A) (A) (A)
                 (A) (A) (A) (A) (A) (A) (A) (A) (A) (A) (A) (A)
                 (A) (A) (A) (A) (A) (A) (A) (A) (A) (A) (A) (A)
                 (A) (A) (A) (A) (A) (A) (A) (A) (A) (A) (A) (A)
                 (A) (A) (A) (A) (A) (A) (A) (A) (A) (A) (A) (A)
                 (A) (A) (A) (A) (A) (A) (A) (A) (A) (A) (A) (A)
                 (A) (A) (A) (A) (A) (A) (A) (A) (A) (A) (A) (A)
                 (A) (A) (A) (A) (A) (A) (A) (A) (A) (A) (A) (A)
                 (A) (A) (A) (A) (A) (A) (A) (A) (A) (A) (A) (A)
                 (A) (A) (A) (A) (A) (A) (A) (A) (A) (A) (A) (A)
                 (A) (A) (A) (A) (A) (A) (A) (A) (A) (A) (A) (A)
                 (A) (A) (A) (A) (A) (A) (A) (A) (A) (A) (A) (A)
                 (A) (A) (A) (A) (A) (A) (A) (A) (A) (A) (A) (A)
                 (A) (A) (A) (A) (A) (A) (A) (A) (A) (A) (A) (A)
                 (A) (A) (A) (A) (A) (A) (A) (A) (A) (A) (A) (A)
                 (A) (A) (A) (A) (A) (A) (A) (A) (A) (A) (A) (A)
                 (A) (A) (A) (A) (A) (A) (A) (A) (A) (A) (A) (A)
                 (A) (A) (A) (A) (A) (A) (A)
 Beta  Orbitals:
       Occupied  (A) (A) (A) (A) (A) (A) (A) (A) (A) (A) (A) (A)
                 (A) (A) (A) (A) (A) (A) (A) (A) (A) (A) (A) (A)
                 (A) (A) (A) (A) (A) (A) (A) (A) (A) (A) (A) (A)
                 (A) (A) (A) (A) (A) (A) (A) (A) (A) (A) (A) (A)
                 (A) (A) (A) (A) (A) (A) (A) (A) (A) (A) (A) (A)
                 (A) (A) (A) (A) (A) (A) (A) (A) (A) (A) (A) (A)
                 (A) (A) (A) (A) (A) (A) (A) (A) (A) (A) (A) (A)
                 (A) (A) (A) (A) (A) (A) (A) (A) (A) (A) (A) (A)
                 (A) (A) (A) (A) (A) (A) (A) (A) (A) (A) (A) (A)
                 (A) (A) (A) (A) (A) (A) (A) (A) (A) (A) (A) (A)
                 (A) (A) (A) (A) (A) (A) (A) (A) (A) (A) (A) (A)
                 (A) (A) (A) (A) (A) (A) (A) (A) (A) (A) (A) (A)
                 (A) (A) (A) (A) (A) (A) (A) (A) (A) (A) (A) (A)
                 (A) (A) (A) (A) (A) (A) (A) (A) (A) (A) (A) (A)
                 (A) (A) (A) (A) (A) (A) (A) (A) (A) (A) (A) (A)
                 (A) (A) (A) (A) (A) (A) (A) (A) (A) (A) (A) (A)
                 (A) (A) (A) (A) (A) (A) (A) (A) (A) (A) (A) (A)
                 (A) (A) (A) (A) (A) (A) (A) (A) (A) (A) (A) (A)
                 (A) (A) (A)
       Virtual   (A) (A) (A) (A) (A) (A) (A) (A) (A) (A) (A) (A)
                 (A) (A) (A) (A) (A) (A) (A) (A) (A) (A) (A) (A)
                 (A) (A) (A) (A) (A) (A) (A) (A) (A) (A) (A) (A)
                 (A) (A) (A) (A) (A) (A) (A) (A) (A) (A) (A) (A)
                 (A) (A) (A) (A) (A) (A) (A) (A) (A) (A) (A) (A)
                 (A) (A) (A) (A) (A) (A) (A) (A) (A) (A) (A) (A)
                 (A) (A) (A) (A) (A) (A) (A) (A) (A) (A) (A) (A)
                 (A) (A) (A) (A) (A) (A) (A) (A) (A) (A) (A) (A)
                 (A) (A) (A) (A) (A) (A) (A) (A) (A) (A) (A) (A)
                 (A) (A) (A) (A) (A) (A) (A) (A) (A) (A) (A) (A)
                 (A) (A) (A) (A) (A) (A) (A) (A) (A) (A) (A) (A)
                 (A) (A) (A) (A) (A) (A) (A) (A) (A) (A) (A) (A)
                 (A) (A) (A) (A) (A) (A) (A) (A) (A) (A) (A) (A)
                 (A) (A) (A) (A) (A) (A) (A) (A) (A) (A) (A) (A)
                 (A) (A) (A) (A) (A) (A) (A) (A) (A) (A) (A) (A)
                 (A) (A) (A) (A) (A) (A) (A) (A) (A) (A) (A) (A)
                 (A) (A) (A) (A) (A) (A) (A) (A) (A) (A) (A) (A)
                 (A) (A) (A) (A) (A) (A) (A) (A) (A) (A) (A) (A)
                 (A) (A) (A) (A) (A) (A) (A) (A) (A) (A) (A) (A)
                 (A) (A) (A) (A) (A) (A) (A) (A) (A) (A) (A) (A)
                 (A) (A) (A) (A) (A) (A) (A) (A) (A) (A) (A) (A)
                 (A) (A) (A) (A) (A) (A) (A) (A) (A) (A) (A) (A)
                 (A) (A) (A) (A) (A) (A) (A) (A) (A) (A) (A) (A)
                 (A) (A) (A) (A) (A) (A) (A) (A) (A) (A) (A) (A)
                 (A) (A) (A) (A) (A) (A) (A) (A) (A) (A) (A) (A)
                 (A) (A) (A) (A) (A) (A) (A) (A) (A) (A) (A) (A)
                 (A) (A) (A) (A) (A) (A) (A) (A) (A) (A) (A) (A)
                 (A) (A) (A) (A) (A) (A) (A) (A) (A) (A) (A) (A)
                 (A) (A) (A) (A) (A) (A) (A) (A) (A) (A) (A) (A)
                 (A) (A) (A) (A) (A) (A) (A) (A) (A) (A) (A) (A)
                 (A) (A) (A) (A) (A) (A) (A) (A) (A) (A) (A) (A)
                 (A) (A) (A) (A) (A) (A) (A) (A) (A) (A) (A) (A)
                 (A) (A) (A) (A) (A) (A) (A) (A) (A) (A) (A) (A)
                 (A) (A) (A) (A) (A) (A) (A) (A) (A) (A) (A) (A)
                 (A) (A) (A) (A) (A) (A) (A) (A) (A) (A) (A) (A)
                 (A) (A) (A) (A) (A) (A) (A) (A) (A) (A) (A) (A)
                 (A) (A) (A) (A) (A) (A) (A) (A) (A) (A) (A) (A)
                 (A) (A) (A) (A) (A) (A) (A) (A) (A) (A) (A) (A)
                 (A) (A) (A) (A) (A) (A) (A) (A) (A) (A) (A) (A)
                 (A) (A) (A) (A) (A) (A) (A) (A) (A) (A) (A) (A)
                 (A) (A) (A) (A) (A) (A) (A) (A) (A) (A) (A) (A)
                 (A) (A) (A) (A) (A) (A) (A) (A) (A) (A) (A) (A)
                 (A) (A) (A) (A) (A) (A) (A) (A) (A) (A) (A) (A)
                 (A) (A) (A) (A) (A) (A) (A) (A) (A) (A) (A) (A)
                 (A) (A) (A) (A) (A) (A) (A) (A) (A) (A) (A) (A)
                 (A) (A) (A) (A) (A) (A) (A) (A) (A) (A) (A) (A)
                 (A) (A) (A) (A) (A) (A) (A) (A) (A) (A) (A) (A)
                 (A) (A) (A) (A) (A) (A) (A) (A) (A) (A) (A) (A)
                 (A) (A) (A) (A) (A) (A) (A) (A) (A) (A) (A) (A)
                 (A) (A) (A) (A) (A) (A) (A) (A) (A) (A) (A) (A)
                 (A) (A) (A) (A) (A) (A) (A) (A) (A) (A) (A) (A)
                 (A) (A) (A) (A) (A) (A) (A) (A) (A) (A) (A) (A)
[...]
              Bcc     0.0013     0.178     0.064     0.059  0.8421  0.5392 -0.0086
 
              Baa    -0.0008    -0.108    -0.039    -0.036 -0.3907  0.9204  0.0168
    25 C(13)  Bbb    -0.0004    -0.048    -0.017    -0.016  0.9205  0.3907  0.0042
              Bcc     0.0012     0.156     0.056     0.052  0.0027 -0.0171  0.9999
 
              Baa    -0.0011    -0.148    -0.053    -0.049 -0.2565  0.9621 -0.0923
    26 C(13)  Bbb    -0.0005    -0.070    -0.025    -0.023  0.9631  0.2464 -0.1083
              Bcc     0.0016     0.218     0.078     0.073  0.0815  0.1167  0.9898
 
              Baa    -0.0002    -0.024    -0.009    -0.008 -0.2970  0.9435  0.1467
    27 C(13)  Bbb    -0.0001    -0.010    -0.004    -0.003  0.1449 -0.1074  0.9836
              Bcc     0.0003     0.035     0.012     0.012  0.9438  0.3134 -0.1048
 
              Baa    -0.0010    -0.140    -0.050    -0.047  0.2109  0.0270  0.9771
    28 C(13)  Bbb     0.0001     0.016     0.006     0.005 -0.3280  0.9436  0.0447
              Bcc     0.0009     0.123     0.044     0.041  0.9208  0.3299 -0.2079
 
              Baa    -0.0004    -0.053    -0.019    -0.018 -0.1901  0.9766  0.1009
    29 C(13)  Bbb    -0.0003    -0.046    -0.016    -0.015  0.1251 -0.0779  0.9891
              Bcc     0.0007     0.099     0.035     0.033  0.9738  0.2006 -0.1073
 
              Baa    -0.0003    -0.035    -0.013    -0.012  0.0371  0.4701  0.8818
    30 C(13)  Bbb    -0.0002    -0.031    -0.011    -0.011 -0.1112  0.8789 -0.4639
              Bcc     0.0005     0.067     0.024     0.022  0.9931  0.0808 -0.0849
 
              Baa    -0.0032    -0.428    -0.153    -0.143 -0.3193  0.9407 -0.1148
    31 C(13)  Bbb    -0.0021    -0.277    -0.099    -0.092  0.9476  0.3179 -0.0305
              Bcc     0.0052     0.704     0.251     0.235 -0.0078  0.1186  0.9929
 
              Baa    -0.0112    -1.507    -0.538    -0.503 -0.1496  0.4179  0.8961
    32 C(13)  Bbb     0.0042     0.561     0.200     0.187 -0.3901  0.8078 -0.4418
              Bcc     0.0070     0.946     0.337     0.315  0.9085  0.4157 -0.0422
 
              Baa    -0.0057    -0.765    -0.273    -0.255  0.7340 -0.5232  0.4330
    33 C(13)  Bbb    -0.0029    -0.389    -0.139    -0.130  0.6556  0.7123 -0.2508
              Bcc     0.0086     1.154     0.412     0.385 -0.1772  0.4679  0.8658
 
              Baa    -0.0130    -1.746    -0.623    -0.582 -0.1581  0.4758  0.8652
    34 C(13)  Bbb     0.0039     0.529     0.189     0.176  0.9158 -0.2569  0.3087
              Bcc     0.0091     1.217     0.434     0.406  0.3692  0.8412 -0.3951
 
              Baa    -0.0400    -5.362    -1.913    -1.789  0.9108 -0.2721  0.3106
    35 C(13)  Bbb    -0.0278    -3.726    -1.329    -1.243  0.3824  0.8397 -0.3857
              Bcc     0.0677     9.088     3.243     3.031 -0.1559  0.4700  0.8688
 
              Baa    -0.0556     4.022     1.435     1.342 -0.4937  0.7235 -0.4826
    36 O(17)  Bbb    -0.0395     2.860     1.020     0.954  0.8551  0.5050 -0.1177
              Bcc     0.0951    -6.882    -2.456    -2.296 -0.1585  0.4707  0.8679
 
              Baa    -0.1057   -14.178    -5.059    -4.729 -0.1590  0.4641  0.8714
    37 C(13)  Bbb     0.0364     4.880     1.741     1.628  0.9821 -0.0156  0.1875
              Bcc     0.0693     9.298     3.318     3.101  0.1006  0.8857 -0.4533
 
              Baa    -0.1062   -14.249    -5.084    -4.753  0.9879  0.0593  0.1436
    38 C(13)  Bbb    -0.0968   -12.985    -4.633    -4.331  0.0146  0.8849 -0.4655
              Bcc     0.2029    27.233     9.718     9.084 -0.1547  0.4620  0.8733
 
              Baa    -0.0436    -5.851    -2.088    -1.952 -0.1545  0.4611  0.8738
    39 C(13)  Bbb     0.0176     2.361     0.842     0.787  0.9404 -0.2025  0.2732
              Bcc     0.0260     3.491     1.246     1.164  0.3029  0.8639 -0.4024
 
              Baa    -0.0629    -8.445    -3.013    -2.817  0.9287 -0.2346  0.2872
    40 C(13)  Bbb    -0.0552    -7.404    -2.642    -2.470  0.3370  0.8571 -0.3896
              Bcc     0.1181    15.848     5.655     5.286 -0.1548  0.4586  0.8751
 
              Baa    -0.0065    -0.251    -0.090    -0.084  0.8720  0.4788 -0.1019
    41 N(14)  Bbb    -0.0023    -0.087    -0.031    -0.029 -0.4654  0.7464 -0.4757
              Bcc     0.0088     0.338     0.121     0.113 -0.1517  0.4622  0.8737
 
              Baa    -0.0209     1.514     0.540     0.505  0.6763  0.6937 -0.2476
    42 O(17)  Bbb    -0.0182     1.320     0.471     0.440  0.7204 -0.5530  0.4185
              Bcc     0.0392    -2.834    -1.011    -0.945 -0.1534  0.4615  0.8738
 
              Baa    -0.0564     4.080     1.456     1.361 -0.1548  0.4608  0.8739
    43 O(17)  Bbb     0.0263    -1.902    -0.679    -0.634  0.5720  0.7630 -0.3010
              Bcc     0.0301    -2.178    -0.777    -0.727  0.8055 -0.4532  0.3817
 
              Baa    -0.5950   -22.946    -8.188    -7.654  0.9730 -0.0678  0.2208
    44 N(14)  Bbb    -0.5868   -22.631    -8.075    -7.549  0.1615  0.8831 -0.4404
              Bcc     1.1817    45.577    16.263    15.203 -0.1652  0.4642  0.8702
 
              Baa    -0.4241    30.688    10.950    10.236  0.7293 -0.5362  0.4249
    45 O(17)  Bbb    -0.3654    26.438     9.434     8.819  0.6640  0.7044 -0.2509
              Bcc     0.7895   -57.127   -20.384   -19.055 -0.1648  0.4651  0.8698
 
              Baa    -0.6784    49.087    17.515    16.374  0.9163  0.3987 -0.0385
    46 O(17)  Bbb    -0.6080    43.998    15.699    14.676 -0.3647  0.7909 -0.4913
              Bcc     1.2864   -93.084   -33.215   -31.050 -0.1655  0.4642  0.8701
 
              Baa    -0.0049    -0.188    -0.067    -0.063 -0.0182 -0.0102  0.9998
    47 N(14)  Bbb     0.0020     0.078     0.028     0.026 -0.4414  0.8973  0.0011
              Bcc     0.0029     0.110     0.039     0.037  0.8971  0.4413  0.0209
 
              Baa    -0.0004    -0.066    -0.024    -0.022 -0.6788  0.6824  0.2713
    48 B(11)  Bbb    -0.0003    -0.055    -0.020    -0.018  0.2511 -0.1315  0.9590
              Bcc     0.0007     0.121     0.043     0.040  0.6901  0.7191 -0.0821
 
              Baa    -0.0007    -0.364    -0.130    -0.121  0.7888 -0.5264  0.3174
    49 F(19)  Bbb    -0.0002    -0.089    -0.032    -0.030 -0.1156  0.3801  0.9177
              Bcc     0.0009     0.453     0.162     0.151  0.6037  0.7606 -0.2389
 
              Baa    -0.0007    -0.339    -0.121    -0.113  0.7489 -0.4507 -0.4859
    50 F(19)  Bbb    -0.0005    -0.259    -0.093    -0.087  0.3210 -0.3947  0.8609
              Bcc     0.0012     0.598     0.214     0.200  0.5797  0.8007  0.1509
 
              Baa    -0.0001    -0.016    -0.006    -0.005  0.1431 -0.0567  0.9881
    51 C(13)  Bbb    -0.0001    -0.010    -0.004    -0.003 -0.6165  0.7759  0.1338
              Bcc     0.0002     0.026     0.009     0.009  0.7743  0.6283 -0.0761
 
              Baa    -0.0001    -0.010    -0.004    -0.003 -0.2132  0.1346  0.9677
    52 C(13)  Bbb    -0.0001    -0.007    -0.003    -0.002 -0.5312  0.8153 -0.2304
              Bcc     0.0001     0.017     0.006     0.006  0.8200  0.5631  0.1023
 
              Baa    -0.0001    -0.043    -0.015    -0.014  0.2643  0.1142  0.9577
    53 F(19)  Bbb    -0.0001    -0.027    -0.009    -0.009 -0.4832  0.8750  0.0290
              Bcc     0.0001     0.070     0.025     0.023  0.8346  0.4704 -0.2864
 
              Baa    -0.0001    -0.008    -0.003    -0.003 -0.5739  0.5862 -0.5719
    54 C(13)  Bbb    -0.0001    -0.007    -0.003    -0.002 -0.2835  0.5129  0.8103
              Bcc     0.0001     0.015     0.005     0.005  0.7683  0.6272 -0.1281
 
              Baa    -0.0001    -0.028    -0.010    -0.009 -0.5002  0.6714  0.5469
    55 F(19)  Bbb    -0.0000    -0.021    -0.008    -0.007  0.4702 -0.3197  0.8226
              Bcc     0.0001     0.049     0.018     0.016  0.7271  0.6686 -0.1558
 
              Baa    -0.0001    -0.009    -0.003    -0.003 -0.4878  0.8542  0.1800
    56 C(13)  Bbb    -0.0000    -0.006    -0.002    -0.002  0.1557 -0.1177  0.9808
              Bcc     0.0001     0.015     0.005     0.005  0.8589  0.5065 -0.0756
 
              Baa    -0.0001    -0.028    -0.010    -0.009 -0.4476  0.8668  0.2199
    57 F(19)  Bbb    -0.0000    -0.017    -0.006    -0.006  0.1609 -0.1638  0.9733
              Bcc     0.0001     0.045     0.016     0.015  0.8796  0.4711 -0.0661
 
              Baa    -0.0001    -0.009    -0.003    -0.003 -0.6027  0.7976 -0.0240
    58 C(13)  Bbb    -0.0001    -0.009    -0.003    -0.003 -0.0331  0.0050  0.9994
              Bcc     0.0001     0.017     0.006     0.006  0.7972  0.6032  0.0234
 
              Baa    -0.0001    -0.039    -0.014    -0.013 -0.5358  0.7144 -0.4501
    59 F(19)  Bbb    -0.0000    -0.020    -0.007    -0.007 -0.3557  0.2925  0.8877
              Bcc     0.0001     0.059     0.021     0.020  0.7658  0.6357  0.0974
 
              Baa    -0.0002    -0.024    -0.008    -0.008  0.5137 -0.6048  0.6086
    60 C(13)  Bbb    -0.0000    -0.005    -0.002    -0.002 -0.3406  0.5073  0.7916
              Bcc     0.0002     0.029     0.010     0.010  0.7875  0.6139 -0.0546
 
              Baa    -0.0001    -0.046    -0.016    -0.015 -0.1042  0.4757  0.8734
    61 F(19)  Bbb    -0.0001    -0.042    -0.015    -0.014 -0.4344  0.7682 -0.4703
              Bcc     0.0002     0.088     0.031     0.029  0.8947  0.4284 -0.1266
 
              Baa    -0.0001    -0.033    -0.012    -0.011  0.6838 -0.4467 -0.5769
    62 H(1)   Bbb    -0.0000    -0.025    -0.009    -0.008  0.4797 -0.3205  0.8168
              Bcc     0.0001     0.059     0.021     0.020  0.5498  0.8353  0.0048
 
              Baa    -0.0001    -0.042    -0.015    -0.014  0.6699 -0.3312 -0.6645
    63 H(1)   Bbb    -0.0001    -0.035    -0.012    -0.012  0.5888 -0.3083  0.7472
              Bcc     0.0001     0.077     0.027     0.026  0.4523  0.8918  0.0115
 
              Baa    -0.0001    -0.028    -0.010    -0.009  0.8560 -0.4239 -0.2959
    64 H(1)   Bbb    -0.0000    -0.024    -0.009    -0.008  0.2667 -0.1282  0.9552
              Bcc     0.0001     0.052     0.019     0.017  0.4428  0.8966 -0.0033
 
              Baa    -0.0001    -0.033    -0.012    -0.011  0.8234 -0.5627  0.0735
    65 H(1)   Bbb    -0.0000    -0.024    -0.009    -0.008 -0.0110  0.1137  0.9935
              Bcc     0.0001     0.057     0.020     0.019  0.5673  0.8188 -0.0875
 
              Baa    -0.0001    -0.044    -0.016    -0.015  0.8758 -0.4809 -0.0422
    66 H(1)   Bbb    -0.0001    -0.028    -0.010    -0.009  0.0616  0.0247  0.9978
              Bcc     0.0001     0.072     0.026     0.024  0.4788  0.8764 -0.0512
 
              Baa    -0.0004    -0.192    -0.069    -0.064  0.9159 -0.3916 -0.0880
    67 H(1)   Bbb    -0.0002    -0.128    -0.046    -0.043  0.1297  0.0811  0.9882
              Bcc     0.0006     0.321     0.115     0.107  0.3798  0.9166 -0.1250
 
              Baa    -0.0001    -0.059    -0.021    -0.020  0.3858  0.1152  0.9154
    68 H(1)   Bbb    -0.0000    -0.016    -0.006    -0.005  0.9157 -0.1693 -0.3646
              Bcc     0.0001     0.076     0.027     0.025  0.1130  0.9788 -0.1708
 
              Baa    -0.0004    -0.230    -0.082    -0.077  0.9825  0.0640  0.1749
    69 H(1)   Bbb    -0.0004    -0.227    -0.081    -0.076 -0.1847  0.2123  0.9596
              Bcc     0.0009     0.457     0.163     0.153 -0.0242  0.9751 -0.2204
 
              Baa    -0.0001    -0.076    -0.027    -0.025  0.9799  0.1715 -0.1018
    70 H(1)   Bbb    -0.0001    -0.054    -0.019    -0.018  0.1026  0.0044  0.9947
              Bcc     0.0002     0.129     0.046     0.043 -0.1711  0.9852  0.0132
 
              Baa    -0.0001    -0.049    -0.018    -0.016  0.8163 -0.0676  0.5737
    71 H(1)   Bbb    -0.0001    -0.040    -0.014    -0.013 -0.5714  0.0507  0.8191
              Bcc     0.0002     0.090     0.032     0.030  0.0844  0.9964 -0.0028
 
              Baa    -0.0001    -0.043    -0.015    -0.014  0.7251 -0.4754  0.4982
    72 H(1)   Bbb    -0.0000    -0.019    -0.007    -0.006 -0.3368  0.3862  0.8587
              Bcc     0.0001     0.062     0.022     0.021  0.6006  0.7905 -0.1199
 
              Baa    -0.0000    -0.021    -0.007    -0.007 -0.3676  0.4495  0.8141
    73 H(1)   Bbb    -0.0000    -0.020    -0.007    -0.007  0.6445 -0.5080  0.5715
              Bcc     0.0001     0.041     0.015     0.014  0.6705  0.7348 -0.1030
 
              Baa    -0.0001    -0.039    -0.014    -0.013 -0.5818  0.4366  0.6862
    74 H(1)   Bbb    -0.0000    -0.016    -0.006    -0.005  0.5676 -0.3864  0.7270
              Bcc     0.0001     0.056     0.020     0.019  0.5826  0.8125 -0.0230
 
              Baa    -0.0001    -0.079    -0.028    -0.026 -0.3210  0.9445  0.0697
    75 H(1)   Bbb    -0.0001    -0.065    -0.023    -0.022 -0.0258 -0.0823  0.9963
              Bcc     0.0003     0.144     0.051     0.048  0.9467  0.3180  0.0508
 
              Baa    -0.0001    -0.079    -0.028    -0.026 -0.3341  0.9215  0.1979
    76 H(1)   Bbb    -0.0001    -0.065    -0.023    -0.022  0.2408 -0.1195  0.9632
              Bcc     0.0003     0.144     0.051     0.048  0.9113  0.3695 -0.1820
 
              Baa    -0.0002    -0.083    -0.029    -0.028  0.0715  0.2710  0.9599
    77 H(1)   Bbb    -0.0001    -0.069    -0.025    -0.023 -0.2324  0.9404 -0.2482
              Bcc     0.0003     0.151     0.054     0.051  0.9700  0.2054 -0.1302
 
              Baa    -0.0005    -0.271    -0.097    -0.090  0.0920  0.6144  0.7837
    78 H(1)   Bbb    -0.0005    -0.245    -0.087    -0.082 -0.2690  0.7731 -0.5745
              Bcc     0.0010     0.516     0.184     0.172  0.9587  0.1580 -0.2364
 
              Baa    -0.0006    -0.295    -0.105    -0.098 -0.1092  0.4515  0.8856
    79 H(1)   Bbb    -0.0005    -0.256    -0.091    -0.085 -0.1683  0.8696 -0.4641
              Bcc     0.0010     0.551     0.197     0.184  0.9797  0.1997  0.0190
 
              Baa    -0.0002    -0.111    -0.040    -0.037 -0.0663  0.4508  0.8902
    80 H(1)   Bbb    -0.0002    -0.100    -0.036    -0.033 -0.0947  0.8853 -0.4553
              Bcc     0.0004     0.211     0.075     0.070  0.9933  0.1145  0.0160
 
              Baa    -0.0002    -0.110    -0.039    -0.037  0.1439  0.3592  0.9221
    81 H(1)   Bbb    -0.0002    -0.100    -0.036    -0.033 -0.1296  0.9306 -0.3423
              Bcc     0.0004     0.210     0.075     0.070  0.9811  0.0703 -0.1805
 
              Baa    -0.0003    -0.151    -0.054    -0.050  0.0776  0.4352  0.8970
    82 H(1)   Bbb    -0.0003    -0.138    -0.049    -0.046  0.0115  0.8992 -0.4373
              Bcc     0.0005     0.290     0.103     0.097  0.9969 -0.0443 -0.0648
 
              Baa    -0.0016    -0.856    -0.305    -0.285 -0.2832  0.8752 -0.3921
    83 H(1)   Bbb    -0.0014    -0.748    -0.267    -0.250 -0.0967  0.3807  0.9196
              Bcc     0.0030     1.604     0.572     0.535  0.9542  0.2984 -0.0232
 
              Baa    -0.0013    -0.669    -0.239    -0.223 -0.1561  0.4678  0.8699
    84 H(1)   Bbb    -0.0007    -0.380    -0.136    -0.127  0.7735 -0.4899  0.4022
              Bcc     0.0020     1.050     0.375     0.350  0.6143  0.7356 -0.2853
 
              Baa    -0.0127    -6.795    -2.425    -2.267 -0.1636  0.4681  0.8684
    85 H(1)   Bbb    -0.0081    -4.333    -1.546    -1.445 -0.4784  0.7322 -0.4848
              Bcc     0.0209    11.128     3.971     3.712  0.8627  0.4948 -0.1041
 
              Baa    -0.0054    -2.902    -1.036    -0.968 -0.2609  0.8601 -0.4384
    86 H(1)   Bbb    -0.0050    -2.683    -0.957    -0.895 -0.1409  0.4153  0.8987
              Bcc     0.0105     5.585     1.993     1.863  0.9550  0.2962  0.0128
 
              Baa    -0.0090    -4.781    -1.706    -1.595  0.9676 -0.1082  0.2281
    87 H(1)   Bbb    -0.0013    -0.696    -0.248    -0.232 -0.1551  0.4583  0.8752
              Bcc     0.0103     5.477     1.954     1.827  0.1992  0.8822 -0.4267
 

 ---------------------------------------------------------------------------------

 No NMR shielding tensors so no spin-rotation constants.
 Leave Link  601 at Thu Oct  9 11:00:35 2025, MaxMem= 30870077440 cpu:             267.4 elap:               4.7
 (Enter /work/home/accqbws0vm/apprepo/gaussian/16-hy/scripts/../app/g16/l9999.exe)
 1\1\GINC-G03R4N36\SP\UM062X\def2TZVPP\C37H26B1F7N6O10(1-,2)\ACCQBWS0VM
 \09-Oct-2025\0\\#p M062X/DEF2TZVPP scrf=(solvent=water) em=GD3\\Energy
  calculation for M100035680_reduced\\-1,2\C,0,-1.674657,-5.528499,-1.1
 79795\C,0,-1.613849,-4.860944,0.205272\C,0,-1.793009,-3.366183,0.17218
 1\C,0,-0.76759,-2.377272,0.181031\C,0,0.674652,-2.497861,0.24091\C,0,1
 .385401,-3.562548,-0.206415\C,0,2.828522,-3.788907,-0.169844\C,0,3.790
 121,-2.893308,0.398241\O,0,3.364449,-1.758525,0.936881\C,0,5.166888,-3
 .253525,0.365567\C,0,5.611913,-4.443453,-0.206256\C,0,4.663038,-5.2872
 81,-0.751111\C,0,3.300979,-4.974864,-0.734519\N,0,5.099642,-6.535366,-
 1.357353\O,0,6.307139,-6.796409,-1.360897\O,0,4.242834,-7.280879,-1.84
 3186\N,0,6.171167,-2.386526,0.938498\O,0,7.35111,-2.72552,0.902786\O,0
 ,5.808749,-1.307828,1.460382\N,0,-1.351281,-1.139024,0.205632\C,0,-2.7
 26626,-1.290841,0.198998\C,0,-3.019572,-2.693351,0.183341\C,0,-4.35803
 6,-3.370893,0.210827\C,0,-3.55849,-0.147571,0.181385\C,0,-3.027843,1.1
 48495,0.147025\C,0,-3.678251,2.437837,0.063166\C,0,-5.15984,2.678622,0
 .123187\C,0,-2.672724,3.385906,-0.073734\C,0,-2.698547,4.890913,-0.249
 454\C,0,-4.033686,5.637271,-0.308811\C,0,-1.415312,2.687632,-0.019396\
 C,0,-0.149678,3.371964,-0.133395\C,0,1.073955,2.941718,0.276541\C,0,2.
 360844,3.608522,0.161234\C,0,2.576484,4.866859,-0.471879\O,0,1.57547,5
 .537622,-1.015574\C,0,3.904488,5.4165,-0.524349\C,0,4.985645,4.730918,
 0.035125\C,0,4.743224,3.49555,0.645488\C,0,3.470084,2.94098,0.712716\N
 ,0,5.848045,2.771718,1.222047\O,0,5.635777,1.67299,1.763771\O,0,6.9842
 55,3.270482,1.159942\N,0,4.115544,6.649597,-1.141633\O,0,3.080453,7.29
 7605,-1.684246\O,0,5.279301,7.174397,-1.201039\N,0,-1.643442,1.349915,
 0.121063\B,0,-0.594028,0.205554,0.176537\F,0,0.172848,0.303086,1.36072
 6\F,0,0.254367,0.263825,-0.932112\C,0,-5.035362,-0.357639,0.15348\C,0,
 -5.746838,-0.686074,1.30762\F,0,-5.102038,-0.81434,2.478595\C,0,-7.118
 442,-0.909777,1.290433\F,0,-7.769108,-1.228236,2.417082\C,0,-7.814708,
 -0.807754,0.090926\F,0,-9.133893,-1.019947,0.061429\C,0,-7.133637,-0.4
 8487,-1.077806\F,0,-7.801809,-0.378906,-2.233968\C,0,-5.761702,-0.2657
 36,-1.034274\F,0,-5.138903,0.060639,-2.177963\H,0,-2.642355,-5.348716,
 -1.659259\H,0,-0.898951,-5.141085,-1.848585\H,0,-1.536225,-6.611244,-1
 .092299\H,0,-2.39289,-5.29789,0.839338\H,0,-0.662594,-5.104075,0.68856
 1\H,0,1.189572,-1.651577,0.671503\H,0,0.854054,-4.375283,-0.689272\H,0
 ,4.158428,-1.265237,1.270507\H,0,6.664352,-4.687227,-0.217644\H,0,2.59
 5789,-5.670861,-1.171532\H,0,-5.030951,-2.992899,-0.563678\H,0,-4.2440
 27,-4.444599,0.05126\H,0,-4.859787,-3.235575,1.175258\H,0,-5.640961,2.
 474483,-0.840164\H,0,-5.64043,2.045465,0.870666\H,0,-5.37777,3.710137,
 0.384393\H,0,-2.093457,5.336388,0.550512\H,0,-2.152089,5.117795,-1.174
 795\H,0,-4.685582,5.262505,-1.102978\H,0,-4.579098,5.593489,0.638021\H
 ,0,-3.834099,6.693122,-0.518315\H,0,-0.228945,4.360874,-0.562055\H,0,1
 .138934,1.989674,0.786946\H,0,2.050663,6.417947,-1.402796\H,0,5.977141
 ,5.154058,-0.011745\H,0,3.327188,1.980585,1.191078\\Version=ES64L-G16R
 evA.03\State=2-A\HF=-3230.1075202\S2=0.768711\S2-1=0.\S2A=0.750231\RMS
 D=2.998e-09\Dipole=-11.7391117,-8.9926887,1.2891377\Quadrupole=-23.291
 8385,-44.6417274,67.9335658,-71.354324,5.9070535,14.9758049\PG=C01 [X(
 C37H26B1F7N6O10)]\\@


 What some people mistake for the high cost
 of living is really the cost of living high.
                              -- Doug Larson
 Job cpu time:       3 days 10 hours 37 minutes 43.6 seconds.
 Elapsed time:       0 days  1 hours 18 minutes 27.2 seconds.
 File lengths (MBytes):  RWF=   5377 Int=      0 D2E=      0 Chk=    353 Scr=      1
 Normal termination of Gaussian 16 at Thu Oct  9 11:00:35 2025.
