 Entering Gaussian System, Link 0=g16
 Input=M100036162_sp.gjf
 Output=M100036162_sp.log
 Initial command:
 /public/software/gauss/g16/l1.exe "/public/home/baiding/1110_v2_sp/tmp_M100036162_sp_1579049/Gau-31211.inp" -scrdir="/public/home/baiding/1110_v2_sp/tmp_M100036162_sp_1579049/"
 Entering Link 1 = /public/software/gauss/g16/l1.exe PID=     31212.
  
 Copyright (c) 1988,1990,1992,1993,1995,1998,2003,2009,2016,
            Gaussian, Inc.  All Rights Reserved.
  
 This is part of the Gaussian(R) 16 program.  It is based on
 the Gaussian(R) 09 system (copyright 2009, Gaussian, Inc.),
 the Gaussian(R) 03 system (copyright 2003, Gaussian, Inc.),
 the Gaussian(R) 98 system (copyright 1998, Gaussian, Inc.),
 the Gaussian(R) 94 system (copyright 1995, Gaussian, Inc.),
 the Gaussian 92(TM) system (copyright 1992, Gaussian, Inc.),
 the Gaussian 90(TM) system (copyright 1990, Gaussian, Inc.),
 the Gaussian 88(TM) system (copyright 1988, Gaussian, Inc.),
 the Gaussian 86(TM) system (copyright 1986, Carnegie Mellon
 University), and the Gaussian 82(TM) system (copyright 1983,
 Carnegie Mellon University). Gaussian is a federally registered
 trademark of Gaussian, Inc.
  
 This software contains proprietary and confidential information,
 including trade secrets, belonging to Gaussian, Inc.
  
 This software is provided under written license and may be
 used, copied, transmitted, or stored only in accord with that
 written license.
  
 The following legend is applicable only to US Government
 contracts under FAR:
  
                    RESTRICTED RIGHTS LEGEND
  
 Use, reproduction and disclosure by the US Government is
 subject to restrictions as set forth in subparagraphs (a)
 and (c) of the Commercial Computer Software - Restricted
 Rights clause in FAR 52.227-19.
  
 Gaussian, Inc.
 340 Quinnipiac St., Bldg. 40, Wallingford CT 06492
  
  
 ---------------------------------------------------------------
 Warning -- This program may not be used in any manner that
 competes with the business of Gaussian, Inc. or will provide
 assistance to any competitor of Gaussian, Inc.  The licensee
 of this program is prohibited from giving any competitor of
 Gaussian, Inc. access to this program.  By using this program,
 the user acknowledges that Gaussian, Inc. is engaged in the
 business of creating and licensing software in the field of
 computational chemistry and represents and warrants to the
 licensee that it is not a competitor of Gaussian, Inc. and that
 it will not use this program in any manner prohibited above.
 ---------------------------------------------------------------
  

 Cite this work as:
 Gaussian 16, Revision A.03,
 M. J. Frisch, G. W. Trucks, H. B. Schlegel, G. E. Scuseria, 
 M. A. Robb, J. R. Cheeseman, G. Scalmani, V. Barone, 
 G. A. Petersson, H. Nakatsuji, X. Li, M. Caricato, A. V. Marenich, 
 J. Bloino, B. G. Janesko, R. Gomperts, B. Mennucci, H. P. Hratchian, 
 J. V. Ortiz, A. F. Izmaylov, J. L. Sonnenberg, D. Williams-Young, 
 F. Ding, F. Lipparini, F. Egidi, J. Goings, B. Peng, A. Petrone, 
 T. Henderson, D. Ranasinghe, V. G. Zakrzewski, J. Gao, N. Rega, 
 G. Zheng, W. Liang, M. Hada, M. Ehara, K. Toyota, R. Fukuda, 
 J. Hasegawa, M. Ishida, T. Nakajima, Y. Honda, O. Kitao, H. Nakai, 
 T. Vreven, K. Throssell, J. A. Montgomery, Jr., J. E. Peralta, 
 F. Ogliaro, M. J. Bearpark, J. J. Heyd, E. N. Brothers, K. N. Kudin, 
 V. N. Staroverov, T. A. Keith, R. Kobayashi, J. Normand, 
 K. Raghavachari, A. P. Rendell, J. C. Burant, S. S. Iyengar, 
 J. Tomasi, M. Cossi, J. M. Millam, M. Klene, C. Adamo, R. Cammi, 
 J. W. Ochterski, R. L. Martin, K. Morokuma, O. Farkas, 
 J. B. Foresman, and D. J. Fox, Gaussian, Inc., Wallingford CT, 2016.
 
 ******************************************
 Gaussian 16:  ES64L-G16RevA.03 25-Dec-2016
                10-Nov-2025 
 ******************************************
 %nprocshared=64
 Will use up to   64 processors via shared memory.
 %mem=230GB
 %chk=M100036162_sp.chk
 ----------------------------------------------
 #p M062X/DEF2TZVPP scrf=(solvent=water) em=GD3
 ----------------------------------------------
 1/38=1,172=1/1;
 2/12=2,17=6,18=5,40=1/2;
 3/5=44,7=202,11=2,25=1,30=1,70=2201,72=1,74=-55,124=31/1,2,3;
 4//1;
 5/5=2,38=5,53=1/2;
 6/7=2,8=2,9=2,10=2,28=1/1;
 99/5=1,9=1/99;
 Leave Link    1 at Mon Nov 10 10:52:16 2025, MaxMem= 30870077440 cpu:              12.0 elap:               0.2
 (Enter /public/software/gauss/g16/l101.exe)
 ---------------------------------
 Energy calculation for M100036162
 ---------------------------------
 Symbolic Z-matrix:
 Charge =  1 Multiplicity = 1
 C                     1.48223  -0.96834   0.12656 
 N                     0.1089   -0.83845  -0.00788 
 B                    -0.67347   0.50115   0.03894 
 N                     0.36513   1.65196  -0.02582 
 C                     1.75536   1.45783  -0.01727 
 C                     2.30988   0.17804   0.09838 
 C                     3.79053   0.01217   0.18159 
 C                     4.45901   0.20901   1.39801 
 C                     5.83781   0.04174   1.48378 
 C                     6.56825  -0.31665   0.34526 
 C                     5.91382  -0.50945  -0.87826 
 C                     4.53256  -0.34997  -0.95088 
 N                     7.97029  -0.46276   0.52849 
 N                     8.66398  -0.78738  -0.44281 
 N                     9.41985  -1.08042  -1.2446 
 C                     1.79424  -2.36427   0.26694 
 C                     0.58261  -3.03576   0.2082 
 C                    -0.45059  -2.08568   0.0375 
 C                     0.12557   2.98437  -0.19514 
 C                     1.36908   3.6556   -0.32361 
 C                     2.39271   2.73883  -0.19965 
 C                     3.8483    3.08042  -0.27466 
 C                     3.12208  -3.03429   0.44859 
 C                    -1.13182   3.69067  -0.23159 
 C                    -2.35394   3.28631   0.18782 
 C                    -3.55518   4.11837   0.12324 
 N                    -3.46889   5.35698  -0.41877 
 C                    -4.58015   6.09596  -0.46335 
 C                    -5.82335   5.66891   0.01288 
 C                    -5.9128    4.39485   0.56897 
 C                    -4.76491   3.60885   0.62521 
 C                    -1.86537  -2.29694  -0.10357 
 C                    -2.45789  -3.50977   0.05244 
 C                    -3.8805   -3.74507  -0.08978 
 N                    -4.34603  -5.04207  -0.07622 
 C                    -5.67101  -5.32026  -0.18373 
 C                    -6.61212  -4.32444  -0.31922 
 C                    -6.17894  -2.99489  -0.34403 
 C                    -4.82859  -2.71691  -0.2265 
 C                    -3.41129  -6.18431   0.04443 
 F                    -1.4048    0.55683   1.23817 
 F                    -1.55633   0.57769  -1.04411 
 H                     3.89745   0.48901   2.2834 
 H                     6.35542   0.18743   2.42576 
 H                     6.47102  -0.78399  -1.76857 
 H                     4.02798  -0.50459  -1.89924 
 H                     0.44981  -4.10732   0.26443 
 H                     1.47461   4.72138  -0.47567 
 H                     4.36691   2.49474  -1.03904 
 H                     3.96016   4.13993  -0.51827 
 H                     4.36098   2.89355   0.67365 
 H                     2.96774  -4.0948    0.66373 
 H                     3.74484  -2.95965  -0.44814 
 H                     3.69268  -2.59643   1.27233 
 H                    -1.03837   4.70635  -0.6059 
 H                    -2.48809   2.30873   0.63421 
 H                    -4.48076   7.08628  -0.90264 
 H                    -6.68695   6.32165  -0.05442 
 H                    -6.85653   4.01925   0.95183 
 H                    -4.79157   2.61068   1.05022 
 H                    -2.45272  -1.42705  -0.37187 
 H                    -1.83642  -4.35913   0.30237 
 H                    -5.93759  -6.36826  -0.15923 
 H                    -7.65825  -4.59072  -0.40169 
 H                    -6.89178  -2.18418  -0.44711 
 H                    -4.48768  -1.69023  -0.22581 
 H                    -2.90715  -6.15219   1.01098 
 H                    -3.98586  -7.1037   -0.03247 
 H                    -2.67863  -6.14792  -0.7622 
 
 ITRead=  0  0  0  0  0  0  0  0  0  0  0  0  0  0  0  0  0  0  0  0
 ITRead=  0  0  0  0  0  0  0  0  0  0  0  0  0  0  0  0  0  0  0  0
 ITRead=  0  0  0  0  0  0  0  0  0  0  0  0  0  0  0  0  0  0  0  0
 ITRead=  0  0  0  0  0  0  0  0  0
 MicOpt= -1 -1 -1 -1 -1 -1 -1 -1 -1 -1 -1 -1 -1 -1 -1 -1 -1 -1 -1 -1
 MicOpt= -1 -1 -1 -1 -1 -1 -1 -1 -1 -1 -1 -1 -1 -1 -1 -1 -1 -1 -1 -1
 MicOpt= -1 -1 -1 -1 -1 -1 -1 -1 -1 -1 -1 -1 -1 -1 -1 -1 -1 -1 -1 -1
 MicOpt= -1 -1 -1 -1 -1 -1 -1 -1 -1
 NAtoms=     69 NQM=       69 NQMF=       0 NMMI=      0 NMMIF=      0
                NMic=       0 NMicF=      0.
                    Isotopes and Nuclear Properties:
 (Nuclear quadrupole moments (NQMom) in fm**2, nuclear magnetic moments (NMagM)
  in nuclear magnetons)

  Atom         1           2           3           4           5           6           7           8           9          10
 IAtWgt=          12          14          11          14          12          12          12          12          12          12
 AtmWgt=  12.0000000  14.0030740  11.0093053  14.0030740  12.0000000  12.0000000  12.0000000  12.0000000  12.0000000  12.0000000
 NucSpn=           0           2           3           2           0           0           0           0           0           0
 AtZEff=  -0.0000000  -0.0000000  -0.0000000  -0.0000000  -0.0000000  -0.0000000  -0.0000000  -0.0000000  -0.0000000  -0.0000000
 NQMom=    0.0000000   2.0440000   4.0590000   2.0440000   0.0000000   0.0000000   0.0000000   0.0000000   0.0000000   0.0000000
 NMagM=    0.0000000   0.4037610   2.6886370   0.4037610   0.0000000   0.0000000   0.0000000   0.0000000   0.0000000   0.0000000
 AtZNuc=   6.0000000   7.0000000   5.0000000   7.0000000   6.0000000   6.0000000   6.0000000   6.0000000   6.0000000   6.0000000

  Atom        11          12          13          14          15          16          17          18          19          20
 IAtWgt=          12          12          14          14          14          12          12          12          12          12
 AtmWgt=  12.0000000  12.0000000  14.0030740  14.0030740  14.0030740  12.0000000  12.0000000  12.0000000  12.0000000  12.0000000
 NucSpn=           0           0           2           2           2           0           0           0           0           0
 AtZEff=  -0.0000000  -0.0000000  -0.0000000  -0.0000000  -0.0000000  -0.0000000  -0.0000000  -0.0000000  -0.0000000  -0.0000000
 NQMom=    0.0000000   0.0000000   2.0440000   2.0440000   2.0440000   0.0000000   0.0000000   0.0000000   0.0000000   0.0000000
 NMagM=    0.0000000   0.0000000   0.4037610   0.4037610   0.4037610   0.0000000   0.0000000   0.0000000   0.0000000   0.0000000
 AtZNuc=   6.0000000   6.0000000   7.0000000   7.0000000   7.0000000   6.0000000   6.0000000   6.0000000   6.0000000   6.0000000

  Atom        21          22          23          24          25          26          27          28          29          30
 IAtWgt=          12          12          12          12          12          12          14          12          12          12
 AtmWgt=  12.0000000  12.0000000  12.0000000  12.0000000  12.0000000  12.0000000  14.0030740  12.0000000  12.0000000  12.0000000
 NucSpn=           0           0           0           0           0           0           2           0           0           0
 AtZEff=  -0.0000000  -0.0000000  -0.0000000  -0.0000000  -0.0000000  -0.0000000  -0.0000000  -0.0000000  -0.0000000  -0.0000000
 NQMom=    0.0000000   0.0000000   0.0000000   0.0000000   0.0000000   0.0000000   2.0440000   0.0000000   0.0000000   0.0000000
 NMagM=    0.0000000   0.0000000   0.0000000   0.0000000   0.0000000   0.0000000   0.4037610   0.0000000   0.0000000   0.0000000
 AtZNuc=   6.0000000   6.0000000   6.0000000   6.0000000   6.0000000   6.0000000   7.0000000   6.0000000   6.0000000   6.0000000

  Atom        31          32          33          34          35          36          37          38          39          40
 IAtWgt=          12          12          12          12          14          12          12          12          12          12
 AtmWgt=  12.0000000  12.0000000  12.0000000  12.0000000  14.0030740  12.0000000  12.0000000  12.0000000  12.0000000  12.0000000
 NucSpn=           0           0           0           0           2           0           0           0           0           0
 AtZEff=  -0.0000000  -0.0000000  -0.0000000  -0.0000000  -0.0000000  -0.0000000  -0.0000000  -0.0000000  -0.0000000  -0.0000000
 NQMom=    0.0000000   0.0000000   0.0000000   0.0000000   2.0440000   0.0000000   0.0000000   0.0000000   0.0000000   0.0000000
 NMagM=    0.0000000   0.0000000   0.0000000   0.0000000   0.4037610   0.0000000   0.0000000   0.0000000   0.0000000   0.0000000
 AtZNuc=   6.0000000   6.0000000   6.0000000   6.0000000   7.0000000   6.0000000   6.0000000   6.0000000   6.0000000   6.0000000

  Atom        41          42          43          44          45          46          47          48          49          50
 IAtWgt=          19          19           1           1           1           1           1           1           1           1
 AtmWgt=  18.9984033  18.9984033   1.0078250   1.0078250   1.0078250   1.0078250   1.0078250   1.0078250   1.0078250   1.0078250
 NucSpn=           1           1           1           1           1           1           1           1           1           1
 AtZEff=  -0.0000000  -0.0000000  -0.0000000  -0.0000000  -0.0000000  -0.0000000  -0.0000000  -0.0000000  -0.0000000  -0.0000000
 NQMom=    0.0000000   0.0000000   0.0000000   0.0000000   0.0000000   0.0000000   0.0000000   0.0000000   0.0000000   0.0000000
 NMagM=    2.6288670   2.6288670   2.7928460   2.7928460   2.7928460   2.7928460   2.7928460   2.7928460   2.7928460   2.7928460
 AtZNuc=   9.0000000   9.0000000   1.0000000   1.0000000   1.0000000   1.0000000   1.0000000   1.0000000   1.0000000   1.0000000

  Atom        51          52          53          54          55          56          57          58          59          60
 IAtWgt=           1           1           1           1           1           1           1           1           1           1
 AtmWgt=   1.0078250   1.0078250   1.0078250   1.0078250   1.0078250   1.0078250   1.0078250   1.0078250   1.0078250   1.0078250
 NucSpn=           1           1           1           1           1           1           1           1           1           1
 AtZEff=  -0.0000000  -0.0000000  -0.0000000  -0.0000000  -0.0000000  -0.0000000  -0.0000000  -0.0000000  -0.0000000  -0.0000000
 NQMom=    0.0000000   0.0000000   0.0000000   0.0000000   0.0000000   0.0000000   0.0000000   0.0000000   0.0000000   0.0000000
 NMagM=    2.7928460   2.7928460   2.7928460   2.7928460   2.7928460   2.7928460   2.7928460   2.7928460   2.7928460   2.7928460
 AtZNuc=   1.0000000   1.0000000   1.0000000   1.0000000   1.0000000   1.0000000   1.0000000   1.0000000   1.0000000   1.0000000

  Atom        61          62          63          64          65          66          67          68          69
 IAtWgt=           1           1           1           1           1           1           1           1           1
 AtmWgt=   1.0078250   1.0078250   1.0078250   1.0078250   1.0078250   1.0078250   1.0078250   1.0078250   1.0078250
 NucSpn=           1           1           1           1           1           1           1           1           1
 AtZEff=  -0.0000000  -0.0000000  -0.0000000  -0.0000000  -0.0000000  -0.0000000  -0.0000000  -0.0000000  -0.0000000
 NQMom=    0.0000000   0.0000000   0.0000000   0.0000000   0.0000000   0.0000000   0.0000000   0.0000000   0.0000000
 NMagM=    2.7928460   2.7928460   2.7928460   2.7928460   2.7928460   2.7928460   2.7928460   2.7928460   2.7928460
 AtZNuc=   1.0000000   1.0000000   1.0000000   1.0000000   1.0000000   1.0000000   1.0000000   1.0000000   1.0000000
 Leave Link  101 at Mon Nov 10 10:52:16 2025, MaxMem= 30870077440 cpu:               3.8 elap:               0.1
 (Enter /public/software/gauss/g16/l202.exe)
 Stoichiometry    C32H27BF2N7(1+)
 Framework group  C1[X(C32H27BF2N7)]
 Deg. of freedom   201
 Full point group                 C1      NOp   1
 Largest Abelian subgroup         C1      NOp   1
 Largest concise Abelian subgroup C1      NOp   1
                         Standard orientation:                         
 ---------------------------------------------------------------------
 Center     Atomic      Atomic             Coordinates (Angstroms)
 Number     Number       Type             X           Y           Z
 ---------------------------------------------------------------------
      1          6           0        1.482228   -0.968336    0.126563
      2          7           0        0.108904   -0.838449   -0.007882
      3          5           0       -0.673473    0.501150    0.038938
      4          7           0        0.365127    1.651956   -0.025816
      5          6           0        1.755356    1.457833   -0.017271
      6          6           0        2.309878    0.178043    0.098379
      7          6           0        3.790532    0.012169    0.181590
      8          6           0        4.459006    0.209011    1.398007
      9          6           0        5.837805    0.041740    1.483783
     10          6           0        6.568245   -0.316648    0.345262
     11          6           0        5.913824   -0.509445   -0.878263
     12          6           0        4.532557   -0.349969   -0.950883
     13          7           0        7.970287   -0.462757    0.528494
     14          7           0        8.663984   -0.787384   -0.442807
     15          7           0        9.419853   -1.080416   -1.244603
     16          6           0        1.794236   -2.364266    0.266940
     17          6           0        0.582609   -3.035762    0.208197
     18          6           0       -0.450589   -2.085682    0.037504
     19          6           0        0.125570    2.984372   -0.195135
     20          6           0        1.369076    3.655599   -0.323613
     21          6           0        2.392713    2.738834   -0.199645
     22          6           0        3.848300    3.080418   -0.274658
     23          6           0        3.122079   -3.034288    0.448588
     24          6           0       -1.131816    3.690672   -0.231586
     25          6           0       -2.353938    3.286310    0.187822
     26          6           0       -3.555176    4.118369    0.123238
     27          7           0       -3.468886    5.356979   -0.418766
     28          6           0       -4.580147    6.095958   -0.463348
     29          6           0       -5.823346    5.668912    0.012878
     30          6           0       -5.912798    4.394854    0.568969
     31          6           0       -4.764910    3.608850    0.625212
     32          6           0       -1.865372   -2.296941   -0.103572
     33          6           0       -2.457885   -3.509771    0.052437
     34          6           0       -3.880503   -3.745072   -0.089784
     35          7           0       -4.346027   -5.042070   -0.076217
     36          6           0       -5.671005   -5.320256   -0.183734
     37          6           0       -6.612116   -4.324440   -0.319223
     38          6           0       -6.178935   -2.994886   -0.344030
     39          6           0       -4.828590   -2.716908   -0.226498
     40          6           0       -3.411290   -6.184314    0.044430
     41          9           0       -1.404800    0.556833    1.238165
     42          9           0       -1.556332    0.577687   -1.044109
     43          1           0        3.897452    0.489010    2.283402
     44          1           0        6.355423    0.187425    2.425761
     45          1           0        6.471018   -0.783994   -1.768573
     46          1           0        4.027980   -0.504591   -1.899242
     47          1           0        0.449807   -4.107324    0.264430
     48          1           0        1.474609    4.721377   -0.475672
     49          1           0        4.366914    2.494743   -1.039039
     50          1           0        3.960159    4.139930   -0.518265
     51          1           0        4.360978    2.893553    0.673649
     52          1           0        2.967736   -4.094795    0.663732
     53          1           0        3.744836   -2.959653   -0.448138
     54          1           0        3.692676   -2.596428    1.272334
     55          1           0       -1.038367    4.706354   -0.605903
     56          1           0       -2.488085    2.308726    0.634212
     57          1           0       -4.480757    7.086284   -0.902641
     58          1           0       -6.686949    6.321648   -0.054420
     59          1           0       -6.856533    4.019246    0.951834
     60          1           0       -4.791567    2.610677    1.050219
     61          1           0       -2.452723   -1.427048   -0.371867
     62          1           0       -1.836417   -4.359125    0.302366
     63          1           0       -5.937592   -6.368258   -0.159226
     64          1           0       -7.658248   -4.590717   -0.401688
     65          1           0       -6.891778   -2.184178   -0.447114
     66          1           0       -4.487685   -1.690233   -0.225811
     67          1           0       -2.907145   -6.152195    1.010983
     68          1           0       -3.985855   -7.103704   -0.032465
     69          1           0       -2.678627   -6.147920   -0.762198
 ---------------------------------------------------------------------
 Rotational constants (GHZ):           0.0888642           0.0472488           0.0316367
 Leave Link  202 at Mon Nov 10 10:52:17 2025, MaxMem= 30870077440 cpu:               0.2 elap:               0.0
 (Enter /public/software/gauss/g16/l301.exe)
 Standard basis: def2TZVPP (5D, 7F)
 Ernie: Thresh=  0.10000D-02 Tol=  0.10000D-05 Strict=F.
 There are  1917 symmetry adapted cartesian basis functions of A   symmetry.
 There are  1680 symmetry adapted basis functions of A   symmetry.
  1680 basis functions,  2601 primitive gaussians,  1917 cartesian basis functions
   145 alpha electrons      145 beta electrons
       nuclear repulsion energy      4465.8814859815 Hartrees.
 IExCor= 4336 DFT=T Ex+Corr=M062X ExCW=0 ScaHFX=  0.540000
 ScaDFX=  1.000000  1.000000  1.000000  1.000000 ScalE2=  1.000000  1.000000
 IRadAn=      5 IRanWt=     -1 IRanGd=            0 ICorTp=0 IEmpDi=131
 NAtoms=   69 NActive=   69 NUniq=   69 SFac= 1.00D+00 NAtFMM=   60 NAOKFM=T Big=T
 Integral buffers will be    131072 words long.
 Raffenetti 2 integral format.
 Two-electron integral symmetry is turned on.
 R6Disp:  Grimme-D3 Dispersion energy=       -0.0058009249 Hartrees.
 Nuclear repulsion after empirical dispersion term =     4465.8756850567 Hartrees.
 ------------------------------------------------------------------------------
 Polarizable Continuum Model (PCM)
 =================================
 Model                : PCM.
 Atomic radii         : UFF (Universal Force Field).
 Polarization charges : Total charges.
 Charge compensation  : None.
 Solution method      : On-the-fly selection.
 Cavity type          : Scaled VdW (van der Waals Surface) (Alpha=1.100).
 Cavity algorithm     : GePol (No added spheres)
                        Default sphere list used, NSphG=   69.
                        Lebedev-Laikov grids with approx.  5.0 points / Ang**2.
                        Smoothing algorithm: York/Karplus (Gamma=1.0000).
                        Polarization charges: spherical gaussians, with
                                              point-specific exponents (IZeta= 3).
                        Self-potential: point-specific (ISelfS= 7).
                        Self-field    : sphere-specific E.n sum rule (ISelfD= 2).
 Solvent              : Water, Eps=  78.355300 Eps(inf)=   1.777849
 ------------------------------------------------------------------------------
 GePol: Number of generator spheres                  =      69
 GePol: Total number of spheres                      =      69
 GePol: Number of exposed spheres                    =      69 (100.00%)
 GePol: Number of points                             =    5049
 GePol: Average weight of points                     =       0.13
 GePol: Minimum weight of points                     =   0.15D-10
 GePol: Maximum weight of points                     =    0.20577
 GePol: Number of points with low weight             =     318
 GePol: Fraction of low-weight points (<1% of avg)   =       6.30%
 GePol: Cavity surface area                          =    642.193 Ang**2
 GePol: Cavity volume                                =    739.499 Ang**3
 Leave Link  301 at Mon Nov 10 10:52:17 2025, MaxMem= 30870077440 cpu:               3.4 elap:               0.1
 (Enter /public/software/gauss/g16/l302.exe)
 NPDir=0 NMtPBC=     1 NCelOv=     1 NCel=       1 NClECP=     1 NCelD=      1
         NCelK=      1 NCelE2=     1 NClLst=     1 CellRange=     0.0.
 One-electron integrals computed using PRISM.
 One-electron integral symmetry used in STVInt
   1 Symmetry operations used in ECPInt.
 ECPInt:  NShTT=  195000 NPrTT=  559101 LenC2=  130007 LenP2D=  252372.
 LDataN:  DoStor=T MaxTD1= 6 Len=  172
 NBasis=  1680 RedAO= T EigKep=  4.01D-06  NBF=  1680
 NBsUse=  1680 1.00D-06 EigRej= -1.00D+00 NBFU=  1680
 Precomputing XC quadrature grid using
 IXCGrd= 4 IRadAn=           5 IRanWt=          -1 IRanGd=           0 AccXCQ= 0.00D+00.
 Generated NRdTot=       0 NPtTot=           0 NUsed=           0 NTot=          32
 NSgBfM=  1723  1723  1723  1723  1723 MxSgAt=    69 MxSgA2=    69.
 Leave Link  302 at Mon Nov 10 10:52:24 2025, MaxMem= 30870077440 cpu:             467.1 elap:               7.4
 (Enter /public/software/gauss/g16/l303.exe)
 DipDrv:  MaxL=1.
 Leave Link  303 at Mon Nov 10 10:52:25 2025, MaxMem= 30870077440 cpu:              23.2 elap:               0.4
 (Enter /public/software/gauss/g16/l401.exe)
 ExpMin= 6.06D-02 ExpMax= 3.55D+04 ExpMxC= 1.21D+03 IAcc=3 IRadAn=         5 AccDes= 0.00D+00
 Harris functional with IExCor= 1009 and IRadAn=       5 diagonalized for initial guess.
 HarFok:  IExCor= 1009 AccDes= 0.00D+00 IRadAn=         5 IDoV= 1 UseB2=F ITyADJ=14
 ICtDFT=  3500011 ScaDFX=  1.000000  1.000000  1.000000  1.000000
 FoFCou: FMM=F IPFlag=           0 FMFlag=      100000 FMFlg1=        2001
         NFxFlg=           0 DoJE=T BraDBF=F KetDBF=T FulRan=T
         wScrn=  0.000000 ICntrl=       500 IOpCl=  0 I1Cent=   200000004 NGrid=           0
         NMat0=    1 NMatS0=      1 NMatT0=    0 NMatD0=    1 NMtDS0=    0 NMtDT0=    0
 Petite list used in FoFCou.
 Harris En= -1842.33388202543    
 JPrj=0 DoOrth=F DoCkMO=F.
 Leave Link  401 at Mon Nov 10 10:52:33 2025, MaxMem= 30870077440 cpu:             554.0 elap:               8.7
 (Enter /public/software/gauss/g16/l502.exe)
 Integral symmetry usage will be decided dynamically.
 Closed shell SCF:
 Using DIIS extrapolation, IDIIS=  1040.
 NGot= 30870077440 LenX= 30862588857 LenY= 30858912051
 Requested convergence on RMS density matrix=1.00D-08 within 128 cycles.
 Requested convergence on MAX density matrix=1.00D-06.
 Requested convergence on             energy=1.00D-06.
 No special actions if energy rises.
 Fock matrices will be formed incrementally for  20 cycles.

 Cycle   1  Pass 1  IDiag  1:
 FoFJK:  IHMeth= 1 ICntrl=       0 DoSepK=F KAlg= 0 I1Cent=           0 FoldK=F
 IRaf= 630000000 NMat=       1 IRICut=       1 DoRegI=T DoRafI=F ISym2E= 0 IDoP0=0 IntGTp=1.
 FoFCou: FMM=T IPFlag=           0 FMFlag=      100000 FMFlg1=        2001
         NFxFlg=           0 DoJE=F BraDBF=F KetDBF=F FulRan=T
         wScrn=  0.000000 ICntrl=         0 IOpCl=  0 I1Cent=           0 NGrid=           0
         NMat0=    1 NMatS0=      1 NMatT0=    0 NMatD0=    1 NMtDS0=    0 NMtDT0=    0
 Symmetry not used in FoFCou.
 FMM levels:  10  Number of levels for PrismC:   9
 Inv3:  Mode=1 IEnd=    76477203.
 Iteration    1 A*A^-1 deviation from unit magnitude is 1.41D-14 for    707.
 Iteration    1 A*A^-1 deviation from orthogonality  is 6.50D-15 for   5010   1866.
 Iteration    1 A^-1*A deviation from unit magnitude is 1.39D-14 for    705.
 Iteration    1 A^-1*A deviation from orthogonality  is 5.14D-15 for   3277    710.
 E= -1842.54425560846    
 DIIS: error= 1.40D-02 at cycle   1 NSaved=   1.
 NSaved= 1 IEnMin= 1 EnMin= -1842.54425560846     IErMin= 1 ErrMin= 1.40D-02
 ErrMax= 1.40D-02  0.00D+00 EMaxC= 1.00D-01 BMatC= 1.11D+00 BMatP= 1.11D+00
 IDIUse=3 WtCom= 8.60D-01 WtEn= 1.40D-01
 Coeff-Com:  0.100D+01
 Coeff-En:   0.100D+01
 Coeff:      0.100D+01
 Gap=     0.210 Goal=   None    Shift=    0.000
 GapD=    0.210 DampG=1.000 DampE=0.500 DampFc=0.5000 IDamp=-1.
 Damping current iteration by 5.00D-01
 RMSDP=1.33D-03 MaxDP=1.83D-01              OVMax= 1.95D-01

 Cycle   2  Pass 1  IDiag  1:
 RMSU=  6.62D-04    CP:  9.85D-01
 E= -1842.97379558407     Delta-E=       -0.429539975601 Rises=F Damp=T
 DIIS: error= 6.59D-03 at cycle   2 NSaved=   2.
 NSaved= 2 IEnMin= 2 EnMin= -1842.97379558407     IErMin= 2 ErrMin= 6.59D-03
 ErrMax= 6.59D-03  0.00D+00 EMaxC= 1.00D-01 BMatC= 1.19D-01 BMatP= 1.11D+00
 IDIUse=3 WtCom= 9.34D-01 WtEn= 6.59D-02
 Coeff-Com: -0.137D+00 0.114D+01
 Coeff-En:   0.000D+00 0.100D+01
 Coeff:     -0.128D+00 0.113D+01
 Gap=     0.147 Goal=   None    Shift=    0.000
 RMSDP=6.60D-04 MaxDP=8.01D-02 DE=-4.30D-01 OVMax= 1.44D-01

 Cycle   3  Pass 1  IDiag  1:
 RMSU=  5.80D-04    CP:  9.78D-01  1.47D+00
 E= -1843.35141016128     Delta-E=       -0.377614577215 Rises=F Damp=F
 DIIS: error= 3.95D-03 at cycle   3 NSaved=   3.
 NSaved= 3 IEnMin= 3 EnMin= -1843.35141016128     IErMin= 3 ErrMin= 3.95D-03
 ErrMax= 3.95D-03  0.00D+00 EMaxC= 1.00D-01 BMatC= 5.94D-02 BMatP= 1.19D-01
 IDIUse=3 WtCom= 9.61D-01 WtEn= 3.95D-02
 Coeff-Com: -0.140D+00 0.513D+00 0.627D+00
 Coeff-En:   0.000D+00 0.000D+00 0.100D+01
 Coeff:     -0.135D+00 0.493D+00 0.642D+00
 Gap=     0.134 Goal=   None    Shift=    0.000
 RMSDP=1.75D-04 MaxDP=2.36D-02 DE=-3.78D-01 OVMax= 5.48D-02

 Cycle   4  Pass 1  IDiag  1:
 RMSU=  1.67D-04    CP:  9.79D-01  1.50D+00  9.15D-01
 E= -1843.39180542684     Delta-E=       -0.040395265558 Rises=F Damp=F
 DIIS: error= 2.31D-03 at cycle   4 NSaved=   4.
 NSaved= 4 IEnMin= 4 EnMin= -1843.39180542684     IErMin= 4 ErrMin= 2.31D-03
 ErrMax= 2.31D-03  0.00D+00 EMaxC= 1.00D-01 BMatC= 1.14D-02 BMatP= 5.94D-02
 IDIUse=3 WtCom= 9.77D-01 WtEn= 2.31D-02
 Coeff-Com: -0.549D-01 0.144D+00 0.354D+00 0.557D+00
 Coeff-En:   0.000D+00 0.000D+00 0.136D+00 0.864D+00
 Coeff:     -0.537D-01 0.141D+00 0.349D+00 0.564D+00
 Gap=     0.135 Goal=   None    Shift=    0.000
 RMSDP=6.67D-05 MaxDP=1.27D-02 DE=-4.04D-02 OVMax= 2.40D-02

 Cycle   5  Pass 1  IDiag  1:
 RMSU=  5.37D-05    CP:  9.79D-01  1.52D+00  9.25D-01  7.77D-01
 E= -1843.40033490399     Delta-E=       -0.008529477156 Rises=F Damp=F
 DIIS: error= 1.01D-03 at cycle   5 NSaved=   5.
 NSaved= 5 IEnMin= 5 EnMin= -1843.40033490399     IErMin= 5 ErrMin= 1.01D-03
 ErrMax= 1.01D-03  0.00D+00 EMaxC= 1.00D-01 BMatC= 1.18D-03 BMatP= 1.14D-02
 IDIUse=3 WtCom= 9.90D-01 WtEn= 1.01D-02
 Coeff-Com: -0.213D-01 0.453D-01 0.158D+00 0.329D+00 0.489D+00
 Coeff-En:   0.000D+00 0.000D+00 0.000D+00 0.000D+00 0.100D+01
 Coeff:     -0.211D-01 0.448D-01 0.156D+00 0.326D+00 0.494D+00
 Gap=     0.136 Goal=   None    Shift=    0.000
 RMSDP=2.22D-05 MaxDP=5.11D-03 DE=-8.53D-03 OVMax= 1.11D-02

 Cycle   6  Pass 1  IDiag  1:
 RMSU=  1.96D-05    CP:  9.79D-01  1.52D+00  9.27D-01  7.90D-01  8.15D-01
 E= -1843.40128675920     Delta-E=       -0.000951855207 Rises=F Damp=F
 DIIS: error= 2.46D-04 at cycle   6 NSaved=   6.
 NSaved= 6 IEnMin= 6 EnMin= -1843.40128675920     IErMin= 6 ErrMin= 2.46D-04
 ErrMax= 2.46D-04  0.00D+00 EMaxC= 1.00D-01 BMatC= 9.64D-05 BMatP= 1.18D-03
 IDIUse=3 WtCom= 9.98D-01 WtEn= 2.46D-03
 Coeff-Com: -0.455D-02 0.700D-02 0.412D-01 0.103D+00 0.263D+00 0.591D+00
 Coeff-En:   0.000D+00 0.000D+00 0.000D+00 0.000D+00 0.000D+00 0.100D+01
 Coeff:     -0.454D-02 0.698D-02 0.411D-01 0.103D+00 0.262D+00 0.592D+00
 Gap=     0.136 Goal=   None    Shift=    0.000
 RMSDP=1.16D-05 MaxDP=2.20D-03 DE=-9.52D-04 OVMax= 2.60D-03

 Cycle   7  Pass 1  IDiag  1:
 RMSU=  9.19D-06    CP:  9.79D-01  1.52D+00  9.32D-01  7.83D-01  9.28D-01
                    CP:  1.01D+00
 E= -1843.40137767889     Delta-E=       -0.000090919692 Rises=F Damp=F
 DIIS: error= 3.99D-05 at cycle   7 NSaved=   7.
 NSaved= 7 IEnMin= 7 EnMin= -1843.40137767889     IErMin= 7 ErrMin= 3.99D-05
 ErrMax= 3.99D-05  0.00D+00 EMaxC= 1.00D-01 BMatC= 8.48D-06 BMatP= 9.64D-05
 IDIUse=1 WtCom= 1.00D+00 WtEn= 0.00D+00
 Coeff-Com:  0.163D-02-0.445D-02-0.920D-02-0.138D-01 0.240D-01 0.237D+00
 Coeff-Com:  0.765D+00
 Coeff:      0.163D-02-0.445D-02-0.920D-02-0.138D-01 0.240D-01 0.237D+00
 Coeff:      0.765D+00
 Gap=     0.137 Goal=   None    Shift=    0.000
 RMSDP=5.00D-06 MaxDP=1.19D-03 DE=-9.09D-05 OVMax= 2.20D-03

 Cycle   8  Pass 1  IDiag  1:
 RMSU=  3.28D-06    CP:  9.79D-01  1.53D+00  9.32D-01  7.89D-01  9.75D-01
                    CP:  1.10D+00  1.18D+00
 E= -1843.40139159234     Delta-E=       -0.000013913446 Rises=F Damp=F
 DIIS: error= 2.21D-05 at cycle   8 NSaved=   8.
 NSaved= 8 IEnMin= 8 EnMin= -1843.40139159234     IErMin= 8 ErrMin= 2.21D-05
 ErrMax= 2.21D-05  0.00D+00 EMaxC= 1.00D-01 BMatC= 1.31D-06 BMatP= 8.48D-06
 IDIUse=1 WtCom= 1.00D+00 WtEn= 0.00D+00
 Coeff-Com:  0.134D-02-0.282D-02-0.976D-02-0.216D-01-0.333D-01-0.985D-03
 Coeff-Com:  0.299D+00 0.768D+00
 Coeff:      0.134D-02-0.282D-02-0.976D-02-0.216D-01-0.333D-01-0.985D-03
 Coeff:      0.299D+00 0.768D+00
 Gap=     0.137 Goal=   None    Shift=    0.000
 RMSDP=3.00D-06 MaxDP=1.04D-03 DE=-1.39D-05 OVMax= 1.43D-03

 Cycle   9  Pass 1  IDiag  1:
 RMSU=  1.53D-06    CP:  9.79D-01  1.53D+00  9.33D-01  7.91D-01  9.95D-01
                    CP:  1.16D+00  1.36D+00  1.24D+00
 E= -1843.40139455326     Delta-E=       -0.000002960924 Rises=F Damp=F
 DIIS: error= 1.03D-05 at cycle   9 NSaved=   9.
 NSaved= 9 IEnMin= 9 EnMin= -1843.40139455326     IErMin= 9 ErrMin= 1.03D-05
 ErrMax= 1.03D-05  0.00D+00 EMaxC= 1.00D-01 BMatC= 3.16D-07 BMatP= 1.31D-06
 IDIUse=1 WtCom= 1.00D+00 WtEn= 0.00D+00
 Coeff-Com:  0.386D-03-0.679D-03-0.307D-02-0.800D-02-0.197D-01-0.354D-01
 Coeff-Com:  0.265D-01 0.355D+00 0.685D+00
 Coeff:      0.386D-03-0.679D-03-0.307D-02-0.800D-02-0.197D-01-0.354D-01
 Coeff:      0.265D-01 0.355D+00 0.685D+00
 Gap=     0.137 Goal=   None    Shift=    0.000
 RMSDP=1.09D-06 MaxDP=1.23D-04 DE=-2.96D-06 OVMax= 6.09D-04

 Cycle  10  Pass 1  IDiag  1:
 RMSU=  7.94D-07    CP:  9.79D-01  1.53D+00  9.33D-01  7.91D-01  1.00D+00
                    CP:  1.18D+00  1.39D+00  1.40D+00  1.08D+00
 E= -1843.40139525796     Delta-E=       -0.000000704701 Rises=F Damp=F
 DIIS: error= 6.56D-06 at cycle  10 NSaved=  10.
 NSaved=10 IEnMin=10 EnMin= -1843.40139525796     IErMin=10 ErrMin= 6.56D-06
 ErrMax= 6.56D-06  0.00D+00 EMaxC= 1.00D-01 BMatC= 6.79D-08 BMatP= 3.16D-07
 IDIUse=1 WtCom= 1.00D+00 WtEn= 0.00D+00
 Coeff-Com: -0.189D-03 0.459D-03 0.130D-02 0.230D-02-0.161D-03-0.150D-01
 Coeff-Com: -0.667D-01-0.579D-01 0.302D+00 0.834D+00
 Coeff:     -0.189D-03 0.459D-03 0.130D-02 0.230D-02-0.161D-03-0.150D-01
 Coeff:     -0.667D-01-0.579D-01 0.302D+00 0.834D+00
 Gap=     0.137 Goal=   None    Shift=    0.000
 RMSDP=8.26D-07 MaxDP=2.35D-04 DE=-7.05D-07 OVMax= 5.26D-04

 Cycle  11  Pass 1  IDiag  1:
 RMSU=  3.34D-07    CP:  9.79D-01  1.53D+00  9.33D-01  7.91D-01  1.00D+00
                    CP:  1.18D+00  1.44D+00  1.51D+00  1.35D+00  1.18D+00
 E= -1843.40139547992     Delta-E=       -0.000000221959 Rises=F Damp=F
 DIIS: error= 2.38D-06 at cycle  11 NSaved=  11.
 NSaved=11 IEnMin=11 EnMin= -1843.40139547992     IErMin=11 ErrMin= 2.38D-06
 ErrMax= 2.38D-06  0.00D+00 EMaxC= 1.00D-01 BMatC= 1.19D-08 BMatP= 6.79D-08
 IDIUse=1 WtCom= 1.00D+00 WtEn= 0.00D+00
 Coeff-Com: -0.139D-03 0.299D-03 0.108D-02 0.241D-02 0.322D-02 0.314D-03
 Coeff-Com: -0.316D-01-0.843D-01 0.369D-02 0.324D+00 0.781D+00
 Coeff:     -0.139D-03 0.299D-03 0.108D-02 0.241D-02 0.322D-02 0.314D-03
 Coeff:     -0.316D-01-0.843D-01 0.369D-02 0.324D+00 0.781D+00
 Gap=     0.137 Goal=   None    Shift=    0.000
 RMSDP=3.14D-07 MaxDP=4.42D-05 DE=-2.22D-07 OVMax= 2.34D-04

 Cycle  12  Pass 1  IDiag  1:
 RMSU=  1.69D-07    CP:  9.79D-01  1.53D+00  9.33D-01  7.92D-01  1.00D+00
                    CP:  1.19D+00  1.44D+00  1.55D+00  1.40D+00  1.43D+00
                    CP:  1.23D+00
 E= -1843.40139552108     Delta-E=       -0.000000041157 Rises=F Damp=F
 DIIS: error= 1.17D-06 at cycle  12 NSaved=  12.
 NSaved=12 IEnMin=12 EnMin= -1843.40139552108     IErMin=12 ErrMin= 1.17D-06
 ErrMax= 1.17D-06  0.00D+00 EMaxC= 1.00D-01 BMatC= 2.80D-09 BMatP= 1.19D-08
 IDIUse=1 WtCom= 1.00D+00 WtEn= 0.00D+00
 Coeff-Com: -0.888D-05 0.950D-05 0.124D-03 0.416D-03 0.104D-02 0.281D-02
 Coeff-Com:  0.254D-03-0.192D-01-0.614D-01-0.510D-01 0.326D+00 0.801D+00
 Coeff:     -0.888D-05 0.950D-05 0.124D-03 0.416D-03 0.104D-02 0.281D-02
 Coeff:      0.254D-03-0.192D-01-0.614D-01-0.510D-01 0.326D+00 0.801D+00
 Gap=     0.137 Goal=   None    Shift=    0.000
 RMSDP=1.60D-07 MaxDP=2.49D-05 DE=-4.12D-08 OVMax= 1.35D-04

 Cycle  13  Pass 1  IDiag  1:
 RMSU=  5.64D-08    CP:  9.79D-01  1.53D+00  9.33D-01  7.92D-01  1.00D+00
                    CP:  1.19D+00  1.44D+00  1.56D+00  1.44D+00  1.51D+00
                    CP:  1.46D+00  1.40D+00
 E= -1843.40139553193     Delta-E=       -0.000000010849 Rises=F Damp=F
 DIIS: error= 4.19D-07 at cycle  13 NSaved=  13.
 NSaved=13 IEnMin=13 EnMin= -1843.40139553193     IErMin=13 ErrMin= 4.19D-07
 ErrMax= 4.19D-07  0.00D+00 EMaxC= 1.00D-01 BMatC= 6.81D-10 BMatP= 2.80D-09
 IDIUse=1 WtCom= 1.00D+00 WtEn= 0.00D+00
 Coeff-Com:  0.293D-04-0.670D-04-0.195D-03-0.374D-03-0.273D-03 0.133D-02
 Coeff-Com:  0.773D-02 0.138D-01-0.299D-01-0.102D+00-0.479D-01 0.334D+00
 Coeff-Com:  0.824D+00
 Coeff:      0.293D-04-0.670D-04-0.195D-03-0.374D-03-0.273D-03 0.133D-02
 Coeff:      0.773D-02 0.138D-01-0.299D-01-0.102D+00-0.479D-01 0.334D+00
 Coeff:      0.824D+00
 Gap=     0.137 Goal=   None    Shift=    0.000
 RMSDP=9.16D-08 MaxDP=1.72D-05 DE=-1.08D-08 OVMax= 6.85D-05

 Cycle  14  Pass 1  IDiag  1:
 RMSU=  2.46D-08    CP:  9.79D-01  1.53D+00  9.33D-01  7.92D-01  1.00D+00
                    CP:  1.19D+00  1.44D+00  1.57D+00  1.45D+00  1.56D+00
                    CP:  1.59D+00  1.71D+00  1.33D+00
 E= -1843.40139553506     Delta-E=       -0.000000003130 Rises=F Damp=F
 DIIS: error= 2.22D-07 at cycle  14 NSaved=  14.
 NSaved=14 IEnMin=14 EnMin= -1843.40139553506     IErMin=14 ErrMin= 2.22D-07
 ErrMax= 2.22D-07  0.00D+00 EMaxC= 1.00D-01 BMatC= 1.03D-10 BMatP= 6.81D-10
 IDIUse=1 WtCom= 1.00D+00 WtEn= 0.00D+00
 Coeff-Com:  0.114D-04-0.239D-04-0.902D-04-0.212D-03-0.280D-03-0.170D-03
 Coeff-Com:  0.232D-02 0.894D-02 0.566D-03-0.241D-01-0.790D-01-0.411D-01
 Coeff-Com:  0.288D+00 0.845D+00
 Coeff:      0.114D-04-0.239D-04-0.902D-04-0.212D-03-0.280D-03-0.170D-03
 Coeff:      0.232D-02 0.894D-02 0.566D-03-0.241D-01-0.790D-01-0.411D-01
 Coeff:      0.288D+00 0.845D+00
 Gap=     0.137 Goal=   None    Shift=    0.000
 RMSDP=3.74D-08 MaxDP=5.23D-06 DE=-3.13D-09 OVMax= 3.09D-05

 Cycle  15  Pass 1  IDiag  1:
 RMSU=  1.20D-08    CP:  9.79D-01  1.53D+00  9.33D-01  7.92D-01  1.00D+00
                    CP:  1.19D+00  1.44D+00  1.57D+00  1.45D+00  1.58D+00
                    CP:  1.64D+00  1.84D+00  1.57D+00  1.34D+00
 E= -1843.40139553511     Delta-E=       -0.000000000047 Rises=F Damp=F
 DIIS: error= 6.23D-08 at cycle  15 NSaved=  15.
 NSaved=15 IEnMin=15 EnMin= -1843.40139553511     IErMin=15 ErrMin= 6.23D-08
 ErrMax= 6.23D-08  0.00D+00 EMaxC= 1.00D-01 BMatC= 2.17D-11 BMatP= 1.03D-10
 IDIUse=1 WtCom= 1.00D+00 WtEn= 0.00D+00
 Coeff-Com: -0.140D-05 0.378D-05 0.270D-05-0.913D-05-0.412D-04-0.324D-03
 Coeff-Com: -0.577D-03 0.981D-03 0.532D-02 0.101D-01-0.190D-01-0.789D-01
 Coeff-Com: -0.609D-01 0.310D+00 0.834D+00
 Coeff:     -0.140D-05 0.378D-05 0.270D-05-0.913D-05-0.412D-04-0.324D-03
 Coeff:     -0.577D-03 0.981D-03 0.532D-02 0.101D-01-0.190D-01-0.789D-01
 Coeff:     -0.609D-01 0.310D+00 0.834D+00
 Gap=     0.137 Goal=   None    Shift=    0.000
 RMSDP=1.52D-08 MaxDP=2.91D-06 DE=-4.73D-11 OVMax= 1.19D-05

 Cycle  16  Pass 1  IDiag  1:
 RMSU=  5.07D-09    CP:  9.79D-01  1.53D+00  9.33D-01  7.92D-01  1.00D+00
                    CP:  1.19D+00  1.44D+00  1.57D+00  1.45D+00  1.59D+00
                    CP:  1.65D+00  1.89D+00  1.66D+00  1.56D+00  1.29D+00
 E= -1843.40139553544     Delta-E=       -0.000000000331 Rises=F Damp=F
 DIIS: error= 2.71D-08 at cycle  16 NSaved=  16.
 NSaved=16 IEnMin=16 EnMin= -1843.40139553544     IErMin=16 ErrMin= 2.71D-08
 ErrMax= 2.71D-08  0.00D+00 EMaxC= 1.00D-01 BMatC= 2.96D-12 BMatP= 2.17D-11
 IDIUse=1 WtCom= 1.00D+00 WtEn= 0.00D+00
 Coeff-Com: -0.202D-05 0.453D-05 0.133D-04 0.255D-04 0.299D-04-0.883D-04
 Coeff-Com: -0.524D-03-0.895D-03 0.157D-02 0.675D-02 0.548D-02-0.218D-01
 Coeff-Com: -0.637D-01-0.221D-01 0.290D+00 0.805D+00
 Coeff:     -0.202D-05 0.453D-05 0.133D-04 0.255D-04 0.299D-04-0.883D-04
 Coeff:     -0.524D-03-0.895D-03 0.157D-02 0.675D-02 0.548D-02-0.218D-01
 Coeff:     -0.637D-01-0.221D-01 0.290D+00 0.805D+00
 Gap=     0.137 Goal=   None    Shift=    0.000
 RMSDP=4.37D-09 MaxDP=4.35D-07 DE=-3.31D-10 OVMax= 3.35D-06

 Error on total polarization charges =  0.02141
 SCF Done:  E(RM062X) =  -1843.40139554     A.U. after   16 cycles
            NFock= 16  Conv=0.44D-08     -V/T= 2.0055
 KE= 1.833371168074D+03 PE=-1.319848780607D+04 EE= 5.055839557406D+03
 Leave Link  502 at Mon Nov 10 11:07:07 2025, MaxMem= 30870077440 cpu:           54947.2 elap:             873.3
 (Enter /public/software/gauss/g16/l601.exe)
 Copying SCF densities to generalized density rwf, IOpCl= 0 IROHF=0.

 **********************************************************************

            Population analysis using the SCF density.

 **********************************************************************

 Orbital symmetries:
       Occupied  (A) (A) (A) (A) (A) (A) (A) (A) (A) (A) (A) (A)
                 (A) (A) (A) (A) (A) (A) (A) (A) (A) (A) (A) (A)
                 (A) (A) (A) (A) (A) (A) (A) (A) (A) (A) (A) (A)
                 (A) (A) (A) (A) (A) (A) (A) (A) (A) (A) (A) (A)
                 (A) (A) (A) (A) (A) (A) (A) (A) (A) (A) (A) (A)
                 (A) (A) (A) (A) (A) (A) (A) (A) (A) (A) (A) (A)
                 (A) (A) (A) (A) (A) (A) (A) (A) (A) (A) (A) (A)
                 (A) (A) (A) (A) (A) (A) (A) (A) (A) (A) (A) (A)
                 (A) (A) (A) (A) (A) (A) (A) (A) (A) (A) (A) (A)
                 (A) (A) (A) (A) (A) (A) (A) (A) (A) (A) (A) (A)
                 (A) (A) (A) (A) (A) (A) (A) (A) (A) (A) (A) (A)
                 (A) (A) (A) (A) (A) (A) (A) (A) (A) (A) (A) (A)
                 (A)
       Virtual   (A) (A) (A) (A) (A) (A) (A) (A) (A) (A) (A) (A)
                 (A) (A) (A) (A) (A) (A) (A) (A) (A) (A) (A) (A)
                 (A) (A) (A) (A) (A) (A) (A) (A) (A) (A) (A) (A)
                 (A) (A) (A) (A) (A) (A) (A) (A) (A) (A) (A) (A)
                 (A) (A) (A) (A) (A) (A) (A) (A) (A) (A) (A) (A)
                 (A) (A) (A) (A) (A) (A) (A) (A) (A) (A) (A) (A)
                 (A) (A) (A) (A) (A) (A) (A) (A) (A) (A) (A) (A)
                 (A) (A) (A) (A) (A) (A) (A) (A) (A) (A) (A) (A)
                 (A) (A) (A) (A) (A) (A) (A) (A) (A) (A) (A) (A)
                 (A) (A) (A) (A) (A) (A) (A) (A) (A) (A) (A) (A)
                 (A) (A) (A) (A) (A) (A) (A) (A) (A) (A) (A) (A)
                 (A) (A) (A) (A) (A) (A) (A) (A) (A) (A) (A) (A)
                 (A) (A) (A) (A) (A) (A) (A) (A) (A) (A) (A) (A)
                 (A) (A) (A) (A) (A) (A) (A) (A) (A) (A) (A) (A)
                 (A) (A) (A) (A) (A) (A) (A) (A) (A) (A) (A) (A)
                 (A) (A) (A) (A) (A) (A) (A) (A) (A) (A) (A) (A)
                 (A) (A) (A) (A) (A) (A) (A) (A) (A) (A) (A) (A)
                 (A) (A) (A) (A) (A) (A) (A) (A) (A) (A) (A) (A)
                 (A) (A) (A) (A) (A) (A) (A) (A) (A) (A) (A) (A)
                 (A) (A) (A) (A) (A) (A) (A) (A) (A) (A) (A) (A)
                 (A) (A) (A) (A) (A) (A) (A) (A) (A) (A) (A) (A)
                 (A) (A) (A) (A) (A) (A) (A) (A) (A) (A) (A) (A)
                 (A) (A) (A) (A) (A) (A) (A) (A) (A) (A) (A) (A)
                 (A) (A) (A) (A) (A) (A) (A) (A) (A) (A) (A) (A)
                 (A) (A) (A) (A) (A) (A) (A) (A) (A) (A) (A) (A)
                 (A) (A) (A) (A) (A) (A) (A) (A) (A) (A) (A) (A)
                 (A) (A) (A) (A) (A) (A) (A) (A) (A) (A) (A) (A)
                 (A) (A) (A) (A) (A) (A) (A) (A) (A) (A) (A) (A)
                 (A) (A) (A) (A) (A) (A) (A) (A) (A) (A) (A) (A)
                 (A) (A) (A) (A) (A) (A) (A) (A) (A) (A) (A) (A)
                 (A) (A) (A) (A) (A) (A) (A) (A) (A) (A) (A) (A)
                 (A) (A) (A) (A) (A) (A) (A) (A) (A) (A) (A) (A)
                 (A) (A) (A) (A) (A) (A) (A) (A) (A) (A) (A) (A)
                 (A) (A) (A) (A) (A) (A) (A) (A) (A) (A) (A) (A)
                 (A) (A) (A) (A) (A) (A) (A) (A) (A) (A) (A) (A)
                 (A) (A) (A) (A) (A) (A) (A) (A) (A) (A) (A) (A)
                 (A) (A) (A) (A) (A) (A) (A) (A) (A) (A) (A) (A)
                 (A) (A) (A) (A) (A) (A) (A) (A) (A) (A) (A) (A)
                 (A) (A) (A) (A) (A) (A) (A) (A) (A) (A) (A) (A)
                 (A) (A) (A) (A) (A) (A) (A) (A) (A) (A) (A) (A)
                 (A) (A) (A) (A) (A) (A) (A) (A) (A) (A) (A) (A)
                 (A) (A) (A) (A) (A) (A) (A) (A) (A) (A) (A) (A)
                 (A) (A) (A) (A) (A) (A) (A) (A) (A) (A) (A) (A)
                 (A) (A) (A) (A) (A) (A) (A) (A) (A) (A) (A) (A)
                 (A) (A) (A) (A) (A) (A) (A) (A) (A) (A) (A) (A)
                 (A) (A) (A) (A) (A) (A) (A) (A) (A) (A) (A) (A)
                 (A) (A) (A) (A) (A) (A) (A) (A) (A) (A) (A) (A)
                 (A) (A) (A) (A) (A) (A) (A) (A) (A) (A) (A) (A)
                 (A) (A) (A) (A) (A) (A) (A) (A) (A) (A) (A) (A)
                 (A) (A) (A) (A) (A) (A) (A) (A) (A) (A) (A) (A)
                 (A) (A) (A) (A) (A) (A) (A) (A) (A) (A) (A) (A)
                 (A) (A) (A) (A) (A) (A) (A) (A) (A) (A) (A) (A)
                 (A) (A) (A) (A) (A) (A) (A) (A) (A) (A) (A) (A)
                 (A) (A) (A) (A) (A) (A) (A) (A) (A) (A) (A) (A)
                 (A) (A) (A) (A) (A) (A) (A) (A) (A) (A) (A) (A)
                 (A) (A) (A) (A) (A) (A) (A) (A) (A) (A) (A) (A)
                 (A) (A) (A) (A) (A) (A) (A) (A) (A) (A) (A) (A)
                 (A) (A) (A) (A) (A) (A) (A) (A) (A) (A) (A) (A)
                 (A) (A) (A) (A) (A) (A) (A) (A) (A) (A) (A) (A)
                 (A) (A) (A) (A) (A) (A) (A) (A) (A) (A) (A) (A)
                 (A) (A) (A) (A) (A) (A) (A) (A) (A) (A) (A) (A)
                 (A) (A) (A) (A) (A) (A) (A) (A) (A) (A) (A) (A)
                 (A) (A) (A) (A) (A) (A) (A) (A) (A) (A) (A) (A)
                 (A) (A) (A) (A) (A) (A) (A) (A) (A) (A) (A) (A)
                 (A) (A) (A) (A) (A) (A) (A) (A) (A) (A) (A) (A)
                 (A) (A) (A) (A) (A) (A) (A) (A) (A) (A) (A) (A)
                 (A) (A) (A) (A) (A) (A) (A) (A) (A) (A) (A) (A)
                 (A) (A) (A) (A) (A) (A) (A) (A) (A) (A) (A) (A)
                 (A) (A) (A) (A) (A) (A) (A) (A) (A) (A) (A) (A)
                 (A) (A) (A) (A) (A) (A) (A) (A) (A) (A) (A) (A)
                 (A) (A) (A) (A) (A) (A) (A) (A) (A) (A) (A) (A)
                 (A) (A) (A) (A) (A) (A) (A) (A) (A) (A) (A) (A)
                 (A) (A) (A) (A) (A) (A) (A) (A) (A) (A) (A) (A)
                 (A) (A) (A) (A) (A) (A) (A) (A) (A) (A) (A) (A)
                 (A) (A) (A) (A) (A) (A) (A) (A) (A) (A) (A) (A)
                 (A) (A) (A) (A) (A) (A) (A) (A) (A) (A) (A) (A)
                 (A) (A) (A) (A) (A) (A) (A) (A) (A) (A) (A) (A)
                 (A) (A) (A) (A) (A) (A) (A) (A) (A) (A) (A) (A)
                 (A) (A) (A) (A) (A) (A) (A) (A) (A) (A) (A) (A)
                 (A) (A) (A) (A) (A) (A) (A) (A) (A) (A) (A) (A)
                 (A) (A) (A) (A) (A) (A) (A) (A) (A) (A) (A) (A)
                 (A) (A) (A) (A) (A) (A) (A) (A) (A) (A) (A) (A)
                 (A) (A) (A) (A) (A) (A) (A) (A) (A) (A) (A) (A)
                 (A) (A) (A) (A) (A) (A) (A) (A) (A) (A) (A) (A)
                 (A) (A) (A) (A) (A) (A) (A) (A) (A) (A) (A) (A)
                 (A) (A) (A) (A) (A) (A) (A) (A) (A) (A) (A) (A)
                 (A) (A) (A) (A) (A) (A) (A) (A) (A) (A) (A) (A)
                 (A) (A) (A) (A) (A) (A) (A) (A) (A) (A) (A) (A)
                 (A) (A) (A) (A) (A) (A) (A) (A) (A) (A) (A) (A)
                 (A) (A) (A) (A) (A) (A) (A) (A) (A) (A) (A) (A)
                 (A) (A) (A) (A) (A) (A) (A) (A) (A) (A) (A) (A)
                 (A) (A) (A) (A) (A) (A) (A) (A) (A) (A) (A) (A)
                 (A) (A) (A) (A) (A) (A) (A) (A) (A) (A) (A) (A)
                 (A) (A) (A) (A) (A) (A) (A) (A) (A) (A) (A) (A)
                 (A) (A) (A) (A) (A) (A) (A) (A) (A) (A) (A) (A)
                 (A) (A) (A) (A) (A) (A) (A) (A) (A) (A) (A) (A)
                 (A) (A) (A) (A) (A) (A) (A) (A) (A) (A) (A) (A)
                 (A) (A) (A) (A) (A) (A) (A) (A) (A) (A) (A) (A)
                 (A) (A) (A) (A) (A) (A) (A) (A) (A) (A) (A) (A)
                 (A) (A) (A) (A) (A) (A) (A) (A) (A) (A) (A) (A)
                 (A) (A) (A) (A) (A) (A) (A) (A) (A) (A) (A) (A)
                 (A) (A) (A) (A) (A) (A) (A) (A) (A) (A) (A) (A)
                 (A) (A) (A) (A) (A) (A) (A) (A) (A) (A) (A) (A)
                 (A) (A) (A) (A) (A) (A) (A) (A) (A) (A) (A) (A)
                 (A) (A) (A) (A) (A) (A) (A) (A) (A) (A) (A) (A)
                 (A) (A) (A) (A) (A) (A) (A) (A) (A) (A) (A) (A)
                 (A) (A) (A) (A) (A) (A) (A) (A) (A) (A) (A) (A)
                 (A) (A) (A) (A) (A) (A) (A) (A) (A) (A) (A) (A)
                 (A) (A) (A) (A) (A) (A) (A) (A) (A) (A) (A) (A)
                 (A) (A) (A) (A) (A) (A) (A) (A) (A) (A) (A) (A)
                 (A) (A) (A) (A) (A) (A) (A) (A) (A) (A) (A) (A)
                 (A) (A) (A) (A) (A) (A) (A) (A) (A) (A) (A) (A)
                 (A) (A) (A) (A) (A) (A) (A) (A) (A) (A) (A) (A)
                 (A) (A) (A) (A) (A) (A) (A) (A) (A) (A) (A) (A)
                 (A) (A) (A) (A) (A) (A) (A) (A) (A) (A) (A) (A)
                 (A) (A) (A) (A) (A) (A) (A) (A) (A) (A) (A) (A)
                 (A) (A) (A) (A) (A) (A) (A) (A) (A) (A) (A) (A)
                 (A) (A) (A) (A) (A) (A) (A) (A) (A) (A) (A) (A)
                 (A) (A) (A) (A) (A) (A) (A) (A) (A) (A) (A) (A)
                 (A) (A) (A) (A) (A) (A) (A) (A) (A) (A) (A) (A)
                 (A) (A) (A) (A) (A) (A) (A) (A) (A) (A) (A) (A)
                 (A) (A) (A) (A) (A) (A) (A) (A) (A) (A) (A) (A)
                 (A) (A) (A) (A) (A) (A) (A) (A) (A) (A) (A) (A)
                 (A) (A) (A) (A) (A) (A) (A) (A) (A) (A) (A) (A)
                 (A) (A) (A) (A) (A) (A) (A) (A) (A) (A) (A) (A)
                 (A) (A) (A) (A) (A) (A) (A) (A) (A) (A) (A) (A)
                 (A) (A) (A) (A) (A) (A) (A) (A) (A) (A) (A) (A)
                 (A) (A) (A) (A) (A) (A) (A) (A) (A) (A) (A)
 The electronic state is 1-A.
 Alpha  occ. eigenvalues --  -25.21234 -25.21152 -14.95408 -14.88178 -14.85561
 Alpha  occ. eigenvalues --  -14.82136 -14.79576 -14.79570 -14.76275 -10.65444
 Alpha  occ. eigenvalues --  -10.63680 -10.61665 -10.61562 -10.61180 -10.60988
 Alpha  occ. eigenvalues --  -10.60580 -10.60214 -10.60024 -10.59994 -10.59774
 Alpha  occ. eigenvalues --  -10.59228 -10.59222 -10.58830 -10.58757 -10.58558
 Alpha  occ. eigenvalues --  -10.58009 -10.57614 -10.57581 -10.56851 -10.56765
 Alpha  occ. eigenvalues --  -10.56671 -10.56648 -10.56555 -10.56518 -10.56245
 Alpha  occ. eigenvalues --  -10.56152 -10.55916 -10.55294 -10.55059 -10.54415
 Alpha  occ. eigenvalues --  -10.54275  -7.14100  -1.33186  -1.29932  -1.28301
 Alpha  occ. eigenvalues --   -1.15634  -1.11611  -1.11198  -1.09705  -1.06458
 Alpha  occ. eigenvalues --   -0.99195  -0.97141  -0.96070  -0.94389  -0.92392
 Alpha  occ. eigenvalues --   -0.92008  -0.91270  -0.91018  -0.89955  -0.87721
 Alpha  occ. eigenvalues --   -0.86664  -0.85762  -0.85115  -0.82791  -0.81901
 Alpha  occ. eigenvalues --   -0.80286  -0.78883  -0.77718  -0.75387  -0.74909
 Alpha  occ. eigenvalues --   -0.72696  -0.72046  -0.71602  -0.71073  -0.69516
 Alpha  occ. eigenvalues --   -0.67415  -0.66509  -0.65380  -0.65015  -0.64263
 Alpha  occ. eigenvalues --   -0.63401  -0.63163  -0.61789  -0.61607  -0.61458
 Alpha  occ. eigenvalues --   -0.60816  -0.60237  -0.59168  -0.58634  -0.58580
 Alpha  occ. eigenvalues --   -0.58317  -0.56959  -0.56439  -0.56284  -0.55858
 Alpha  occ. eigenvalues --   -0.55230  -0.54638  -0.54233  -0.53960  -0.53167
 Alpha  occ. eigenvalues --   -0.52938  -0.52670  -0.52155  -0.51959  -0.50924
 Alpha  occ. eigenvalues --   -0.50640  -0.50508  -0.50270  -0.50093  -0.49711
 Alpha  occ. eigenvalues --   -0.49399  -0.49220  -0.49185  -0.48442  -0.48321
 Alpha  occ. eigenvalues --   -0.47699  -0.47329  -0.47159  -0.47118  -0.46978
 Alpha  occ. eigenvalues --   -0.46526  -0.45843  -0.45453  -0.44766  -0.44424
 Alpha  occ. eigenvalues --   -0.44017  -0.43494  -0.43274  -0.42647  -0.42143
 Alpha  occ. eigenvalues --   -0.41496  -0.39704  -0.39195  -0.38919  -0.38233
 Alpha  occ. eigenvalues --   -0.36855  -0.35474  -0.34108  -0.33581  -0.33237
 Alpha  occ. eigenvalues --   -0.32902  -0.31897  -0.30269  -0.28941  -0.25178
 Alpha virt. eigenvalues --   -0.11471  -0.06962  -0.04298  -0.02987  -0.01764
 Alpha virt. eigenvalues --   -0.00392  -0.00364  -0.00020   0.02314   0.04362
 Alpha virt. eigenvalues --    0.05535   0.05846   0.06010   0.06486   0.06917
 Alpha virt. eigenvalues --    0.07768   0.08053   0.08785   0.09192   0.09274
 Alpha virt. eigenvalues --    0.09612   0.09731   0.09972   0.10322   0.10511
 Alpha virt. eigenvalues --    0.10637   0.11235   0.11520   0.11822   0.12287
 Alpha virt. eigenvalues --    0.12458   0.12703   0.12981   0.13110   0.13479
 Alpha virt. eigenvalues --    0.13853   0.14062   0.14314   0.14677   0.14826
 Alpha virt. eigenvalues --    0.15262   0.15411   0.15664   0.15837   0.16204
 Alpha virt. eigenvalues --    0.16407   0.16871   0.17190   0.17635   0.17687
 Alpha virt. eigenvalues --    0.18115   0.18318   0.18814   0.18898   0.19226
 Alpha virt. eigenvalues --    0.19535   0.19742   0.19914   0.20496   0.20790
 Alpha virt. eigenvalues --    0.21182   0.21237   0.21558   0.21768   0.22149
 Alpha virt. eigenvalues --    0.22422   0.22590   0.22878   0.23018   0.23123
 Alpha virt. eigenvalues --    0.23619   0.24405   0.24423   0.24736   0.24852
 Alpha virt. eigenvalues --    0.25219   0.25257   0.25577   0.25783   0.26280
 Alpha virt. eigenvalues --    0.26458   0.26598   0.26914   0.27042   0.27118
 Alpha virt. eigenvalues --    0.27211   0.27405   0.27898   0.28039   0.28277
 Alpha virt. eigenvalues --    0.28701   0.29119   0.29363   0.29660   0.29778
 Alpha virt. eigenvalues --    0.30122   0.30368   0.30537   0.30621   0.30803
 Alpha virt. eigenvalues --    0.31016   0.31355   0.31368   0.31697   0.32099
 Alpha virt. eigenvalues --    0.32146   0.32349   0.32669   0.33099   0.33199
 Alpha virt. eigenvalues --    0.33641   0.33784   0.33948   0.34407   0.34615
 Alpha virt. eigenvalues --    0.34774   0.35092   0.35412   0.35691   0.36168
 Alpha virt. eigenvalues --    0.36306   0.36399   0.36618   0.36844   0.37050
 Alpha virt. eigenvalues --    0.37140   0.37421   0.37700   0.37794   0.38411
 Alpha virt. eigenvalues --    0.38433   0.38544   0.39017   0.39071   0.39405
 Alpha virt. eigenvalues --    0.39757   0.40033   0.40099   0.40301   0.40519
 Alpha virt. eigenvalues --    0.40670   0.40816   0.41312   0.41444   0.41640
 Alpha virt. eigenvalues --    0.41832   0.41914   0.42378   0.42590   0.42879
 Alpha virt. eigenvalues --    0.43156   0.43267   0.43553   0.43836   0.44013
 Alpha virt. eigenvalues --    0.44259   0.44330   0.44797   0.44937   0.45092
 Alpha virt. eigenvalues --    0.45391   0.45441   0.45620   0.46046   0.46642
 Alpha virt. eigenvalues --    0.46681   0.46961   0.47197   0.47573   0.47682
 Alpha virt. eigenvalues --    0.47814   0.48143   0.48233   0.48563   0.48766
 Alpha virt. eigenvalues --    0.49190   0.49316   0.49583   0.49680   0.49885
 Alpha virt. eigenvalues --    0.50137   0.50501   0.50681   0.51160   0.51522
 Alpha virt. eigenvalues --    0.51574   0.51812   0.51920   0.52046   0.52129
 Alpha virt. eigenvalues --    0.52438   0.52640   0.52791   0.52940   0.53375
 Alpha virt. eigenvalues --    0.53917   0.54072   0.54226   0.54534   0.55252
 Alpha virt. eigenvalues --    0.55481   0.55684   0.56017   0.56179   0.56733
 Alpha virt. eigenvalues --    0.56864   0.57089   0.57390   0.57632   0.58576
 Alpha virt. eigenvalues --    0.58726   0.59038   0.59395   0.59577   0.59827
 Alpha virt. eigenvalues --    0.60336   0.60557   0.61545   0.61746   0.61954
 Alpha virt. eigenvalues --    0.62136   0.62568   0.62793   0.63166   0.63429
 Alpha virt. eigenvalues --    0.63669   0.64302   0.64526   0.64749   0.65015
 Alpha virt. eigenvalues --    0.65092   0.65478   0.65595   0.66111   0.66479
 Alpha virt. eigenvalues --    0.66666   0.66998   0.67338   0.67503   0.67587
 Alpha virt. eigenvalues --    0.67760   0.67822   0.67945   0.68112   0.68594
 Alpha virt. eigenvalues --    0.68863   0.68960   0.69781   0.69857   0.70093
 Alpha virt. eigenvalues --    0.70454   0.70589   0.70772   0.70791   0.71257
 Alpha virt. eigenvalues --    0.71478   0.71828   0.71926   0.72169   0.72580
 Alpha virt. eigenvalues --    0.72641   0.72985   0.73288   0.73598   0.74002
 Alpha virt. eigenvalues --    0.74727   0.74804   0.75003   0.75317   0.75507
 Alpha virt. eigenvalues --    0.75761   0.76591   0.76678   0.76835   0.77067
 Alpha virt. eigenvalues --    0.77110   0.77472   0.77868   0.78392   0.78501
 Alpha virt. eigenvalues --    0.79034   0.79178   0.79756   0.79876   0.80183
 Alpha virt. eigenvalues --    0.80696   0.81240   0.81470   0.81895   0.82177
 Alpha virt. eigenvalues --    0.82262   0.83156   0.83484   0.83636   0.83860
 Alpha virt. eigenvalues --    0.84312   0.85109   0.85370   0.85489   0.85767
 Alpha virt. eigenvalues --    0.86197   0.86350   0.86702   0.87030   0.87585
 Alpha virt. eigenvalues --    0.87797   0.88341   0.88653   0.88714   0.88890
 Alpha virt. eigenvalues --    0.89133   0.89505   0.89604   0.90114   0.90650
 Alpha virt. eigenvalues --    0.91270   0.91941   0.92233   0.92587   0.92919
 Alpha virt. eigenvalues --    0.93195   0.93555   0.94061   0.94500   0.94580
 Alpha virt. eigenvalues --    0.94997   0.95249   0.95366   0.95887   0.96304
 Alpha virt. eigenvalues --    0.96671   0.96921   0.97230   0.97606   0.98043
 Alpha virt. eigenvalues --    0.98233   0.98841   0.99158   0.99397   0.99622
 Alpha virt. eigenvalues --    0.99927   1.00173   1.00581   1.01146   1.01312
 Alpha virt. eigenvalues --    1.01438   1.01542   1.02017   1.02124   1.02437
 Alpha virt. eigenvalues --    1.02563   1.02719   1.03132   1.03704   1.03805
 Alpha virt. eigenvalues --    1.04114   1.04395   1.04791   1.05302   1.05377
 Alpha virt. eigenvalues --    1.05841   1.06164   1.06590   1.07258   1.07519
 Alpha virt. eigenvalues --    1.07577   1.07854   1.08274   1.08508   1.09149
 Alpha virt. eigenvalues --    1.09171   1.09322   1.09935   1.10366   1.10748
 Alpha virt. eigenvalues --    1.11094   1.11451   1.11911   1.12267   1.12470
 Alpha virt. eigenvalues --    1.12867   1.13154   1.13387   1.13633   1.14068
 Alpha virt. eigenvalues --    1.14147   1.14499   1.14809   1.15383   1.15478
 Alpha virt. eigenvalues --    1.16134   1.16358   1.16714   1.17132   1.17452
 Alpha virt. eigenvalues --    1.18058   1.18211   1.18673   1.19156   1.19368
 Alpha virt. eigenvalues --    1.19695   1.19854   1.20382   1.20846   1.20876
 Alpha virt. eigenvalues --    1.22125   1.22276   1.22334   1.23098   1.23290
 Alpha virt. eigenvalues --    1.23687   1.23948   1.24147   1.24482   1.24636
 Alpha virt. eigenvalues --    1.25017   1.25301   1.25537   1.25972   1.26233
 Alpha virt. eigenvalues --    1.26528   1.27246   1.27556   1.27983   1.28390
 Alpha virt. eigenvalues --    1.28596   1.28837   1.29473   1.29884   1.30121
 Alpha virt. eigenvalues --    1.30439   1.30627   1.30804   1.31076   1.31681
 Alpha virt. eigenvalues --    1.31892   1.32132   1.32431   1.32857   1.33028
 Alpha virt. eigenvalues --    1.33400   1.33993   1.34542   1.34745   1.35036
 Alpha virt. eigenvalues --    1.35408   1.35684   1.35732   1.36598   1.36738
 Alpha virt. eigenvalues --    1.37158   1.37200   1.37400   1.37780   1.38073
 Alpha virt. eigenvalues --    1.38384   1.38977   1.39199   1.39709   1.39836
 Alpha virt. eigenvalues --    1.40654   1.41285   1.41530   1.41881   1.42094
 Alpha virt. eigenvalues --    1.42489   1.42787   1.43370   1.43469   1.44023
 Alpha virt. eigenvalues --    1.44428   1.44815   1.44973   1.45431   1.45518
 Alpha virt. eigenvalues --    1.45994   1.46272   1.46705   1.46930   1.47263
 Alpha virt. eigenvalues --    1.47790   1.47860   1.48146   1.48980   1.49232
 Alpha virt. eigenvalues --    1.49386   1.49816   1.49945   1.50262   1.50490
 Alpha virt. eigenvalues --    1.51203   1.51612   1.51636   1.52310   1.52513
 Alpha virt. eigenvalues --    1.52672   1.53006   1.53151   1.53334   1.53840
 Alpha virt. eigenvalues --    1.53919   1.54054   1.54296   1.54804   1.54883
 Alpha virt. eigenvalues --    1.54937   1.55470   1.55736   1.56097   1.56470
 Alpha virt. eigenvalues --    1.56761   1.57068   1.57649   1.58201   1.58344
 Alpha virt. eigenvalues --    1.58673   1.58991   1.59347   1.59818   1.60109
 Alpha virt. eigenvalues --    1.60608   1.61154   1.61683   1.62004   1.62268
 Alpha virt. eigenvalues --    1.62501   1.63088   1.63405   1.63770   1.64115
 Alpha virt. eigenvalues --    1.64494   1.64746   1.65534   1.65786   1.66113
 Alpha virt. eigenvalues --    1.66563   1.66987   1.67216   1.67355   1.67837
 Alpha virt. eigenvalues --    1.68481   1.69025   1.69447   1.69739   1.69886
 Alpha virt. eigenvalues --    1.70196   1.70398   1.70608   1.70713   1.71521
 Alpha virt. eigenvalues --    1.71621   1.71926   1.72414   1.72754   1.73393
 Alpha virt. eigenvalues --    1.73754   1.74537   1.74802   1.75859   1.76011
 Alpha virt. eigenvalues --    1.76918   1.77214   1.77563   1.77796   1.78047
 Alpha virt. eigenvalues --    1.78226   1.78779   1.79002   1.79293   1.79954
 Alpha virt. eigenvalues --    1.80811   1.81054   1.81595   1.81948   1.82678
 Alpha virt. eigenvalues --    1.82909   1.83683   1.84009   1.84268   1.84326
 Alpha virt. eigenvalues --    1.84995   1.85379   1.85913   1.86201   1.86802
 Alpha virt. eigenvalues --    1.87119   1.87727   1.88083   1.88532   1.88694
 Alpha virt. eigenvalues --    1.89129   1.89802   1.90108   1.90449   1.90780
 Alpha virt. eigenvalues --    1.91874   1.92891   1.93594   1.93875   1.94601
 Alpha virt. eigenvalues --    1.95027   1.95716   1.95792   1.96162   1.96703
 Alpha virt. eigenvalues --    1.96860   1.96993   1.97944   1.98414   1.98508
 Alpha virt. eigenvalues --    1.98880   1.99550   2.00016   2.00257   2.00955
 Alpha virt. eigenvalues --    2.01269   2.01612   2.02214   2.02612   2.03831
 Alpha virt. eigenvalues --    2.04443   2.04627   2.05494   2.05902   2.06098
 Alpha virt. eigenvalues --    2.06729   2.07311   2.07813   2.08391   2.08566
 Alpha virt. eigenvalues --    2.09083   2.09530   2.09945   2.10505   2.11265
 Alpha virt. eigenvalues --    2.11349   2.12321   2.13599   2.14181   2.15084
 Alpha virt. eigenvalues --    2.15173   2.15803   2.16545   2.17134   2.17351
 Alpha virt. eigenvalues --    2.17850   2.19309   2.19629   2.20022   2.20519
 Alpha virt. eigenvalues --    2.21822   2.21997   2.22852   2.22935   2.23632
 Alpha virt. eigenvalues --    2.24495   2.25268   2.25780   2.26466   2.26975
 Alpha virt. eigenvalues --    2.27920   2.28571   2.29474   2.30129   2.30204
 Alpha virt. eigenvalues --    2.30835   2.31904   2.32105   2.32459   2.32700
 Alpha virt. eigenvalues --    2.33045   2.33960   2.34390   2.35247   2.35517
 Alpha virt. eigenvalues --    2.35732   2.36510   2.36900   2.37446   2.38035
 Alpha virt. eigenvalues --    2.38126   2.38302   2.38339   2.38917   2.38975
 Alpha virt. eigenvalues --    2.39473   2.40060   2.40274   2.41469   2.42015
 Alpha virt. eigenvalues --    2.42129   2.42749   2.43665   2.43970   2.44189
 Alpha virt. eigenvalues --    2.44939   2.45435   2.46186   2.46594   2.46886
 Alpha virt. eigenvalues --    2.47671   2.47912   2.50071   2.50544   2.50588
 Alpha virt. eigenvalues --    2.52484   2.52989   2.53673   2.54073   2.55106
 Alpha virt. eigenvalues --    2.55751   2.56836   2.57012   2.57920   2.58175
 Alpha virt. eigenvalues --    2.58369   2.59238   2.59669   2.60214   2.60787
 Alpha virt. eigenvalues --    2.60910   2.62113   2.62613   2.63168   2.63768
 Alpha virt. eigenvalues --    2.64119   2.64448   2.64807   2.65408   2.65894
 Alpha virt. eigenvalues --    2.66599   2.66905   2.67173   2.67511   2.67772
 Alpha virt. eigenvalues --    2.68329   2.68860   2.69380   2.69468   2.70208
 Alpha virt. eigenvalues --    2.70610   2.71687   2.72066   2.72343   2.72760
 Alpha virt. eigenvalues --    2.73207   2.73286   2.73861   2.74112   2.74563
 Alpha virt. eigenvalues --    2.74905   2.75396   2.75520   2.75643   2.75835
 Alpha virt. eigenvalues --    2.76324   2.76545   2.76886   2.77171   2.77531
 Alpha virt. eigenvalues --    2.77549   2.77983   2.78423   2.78859   2.79007
 Alpha virt. eigenvalues --    2.79605   2.79810   2.80098   2.80372   2.80490
 Alpha virt. eigenvalues --    2.81007   2.81541   2.81838   2.82112   2.82714
 Alpha virt. eigenvalues --    2.82926   2.83342   2.83629   2.84185   2.84557
 Alpha virt. eigenvalues --    2.84987   2.85135   2.85525   2.85651   2.85772
 Alpha virt. eigenvalues --    2.86078   2.86642   2.86867   2.87156   2.87739
 Alpha virt. eigenvalues --    2.87938   2.88585   2.89029   2.89423   2.89593
 Alpha virt. eigenvalues --    2.90005   2.90114   2.90648   2.90904   2.91508
 Alpha virt. eigenvalues --    2.91996   2.92217   2.92603   2.93326   2.93544
 Alpha virt. eigenvalues --    2.93825   2.93919   2.94241   2.94412   2.94619
 Alpha virt. eigenvalues --    2.94771   2.95477   2.95778   2.96332   2.96554
 Alpha virt. eigenvalues --    2.96760   2.97206   2.97641   2.97644   2.98181
 Alpha virt. eigenvalues --    2.98499   2.98853   2.99158   2.99472   2.99560
 Alpha virt. eigenvalues --    2.99829   3.00193   3.00379   3.00721   3.00867
 Alpha virt. eigenvalues --    3.01254   3.01273   3.01515   3.02051   3.02307
 Alpha virt. eigenvalues --    3.02514   3.02869   3.03465   3.03644   3.03708
 Alpha virt. eigenvalues --    3.04104   3.04570   3.04657   3.04995   3.05439
 Alpha virt. eigenvalues --    3.05520   3.05561   3.05752   3.06574   3.06932
 Alpha virt. eigenvalues --    3.07168   3.07557   3.07714   3.08193   3.08271
 Alpha virt. eigenvalues --    3.08646   3.08950   3.09219   3.09436   3.09560
 Alpha virt. eigenvalues --    3.10061   3.10406   3.10664   3.10993   3.11282
 Alpha virt. eigenvalues --    3.11368   3.12280   3.12393   3.12826   3.13122
 Alpha virt. eigenvalues --    3.13446   3.13593   3.14169   3.14286   3.14450
 Alpha virt. eigenvalues --    3.14927   3.15368   3.15418   3.15779   3.16289
 Alpha virt. eigenvalues --    3.16345   3.16845   3.17219   3.17749   3.18261
 Alpha virt. eigenvalues --    3.18542   3.18597   3.19109   3.19514   3.19790
 Alpha virt. eigenvalues --    3.19874   3.19987   3.20466   3.20759   3.21095
 Alpha virt. eigenvalues --    3.21592   3.21709   3.21931   3.22256   3.22551
 Alpha virt. eigenvalues --    3.22984   3.23243   3.23373   3.23985   3.24217
 Alpha virt. eigenvalues --    3.24428   3.24954   3.25457   3.25788   3.25899
 Alpha virt. eigenvalues --    3.26201   3.27000   3.27433   3.27588   3.28078
 Alpha virt. eigenvalues --    3.28245   3.28543   3.28645   3.28781   3.29194
 Alpha virt. eigenvalues --    3.29571   3.29925   3.30216   3.30269   3.30521
 Alpha virt. eigenvalues --    3.30965   3.31044   3.31329   3.31665   3.32180
 Alpha virt. eigenvalues --    3.32493   3.32830   3.33323   3.33349   3.33743
 Alpha virt. eigenvalues --    3.34099   3.34404   3.34545   3.35261   3.35395
 Alpha virt. eigenvalues --    3.35489   3.35702   3.36147   3.36468   3.36923
 Alpha virt. eigenvalues --    3.37097   3.37419   3.37965   3.38277   3.38485
 Alpha virt. eigenvalues --    3.38738   3.39384   3.39891   3.39981   3.40155
 Alpha virt. eigenvalues --    3.40196   3.40682   3.41193   3.41680   3.41755
 Alpha virt. eigenvalues --    3.41945   3.42258   3.42722   3.43198   3.43574
 Alpha virt. eigenvalues --    3.43670   3.44040   3.44523   3.45090   3.45247
 Alpha virt. eigenvalues --    3.45558   3.45838   3.46377   3.46842   3.47100
 Alpha virt. eigenvalues --    3.47839   3.48018   3.48497   3.49121   3.49307
 Alpha virt. eigenvalues --    3.49594   3.49925   3.50053   3.50311   3.50863
 Alpha virt. eigenvalues --    3.51083   3.51550   3.51685   3.52063   3.52638
 Alpha virt. eigenvalues --    3.53049   3.53360   3.53410   3.53563   3.54219
 Alpha virt. eigenvalues --    3.54617   3.54753   3.54957   3.55573   3.55877
 Alpha virt. eigenvalues --    3.56369   3.56555   3.56976   3.57394   3.57786
 Alpha virt. eigenvalues --    3.58401   3.58876   3.59316   3.59676   3.59995
 Alpha virt. eigenvalues --    3.60587   3.60869   3.61246   3.61439   3.61734
 Alpha virt. eigenvalues --    3.61797   3.62379   3.62898   3.63631   3.63878
 Alpha virt. eigenvalues --    3.64310   3.64702   3.64809   3.65184   3.65307
 Alpha virt. eigenvalues --    3.65557   3.65879   3.66210   3.66899   3.67195
 Alpha virt. eigenvalues --    3.67430   3.67574   3.67952   3.68920   3.69274
 Alpha virt. eigenvalues --    3.69752   3.70388   3.70719   3.71010   3.71388
 Alpha virt. eigenvalues --    3.71845   3.72636   3.73147   3.73316   3.73614
 Alpha virt. eigenvalues --    3.73925   3.74322   3.74678   3.75338   3.75809
 Alpha virt. eigenvalues --    3.76108   3.76614   3.76680   3.77071   3.77325
 Alpha virt. eigenvalues --    3.77563   3.77744   3.78056   3.78244   3.78556
 Alpha virt. eigenvalues --    3.78594   3.79148   3.79292   3.80249   3.80413
 Alpha virt. eigenvalues --    3.80584   3.80767   3.81231   3.81589   3.82259
 Alpha virt. eigenvalues --    3.82723   3.82902   3.83496   3.84258   3.84707
 Alpha virt. eigenvalues --    3.84995   3.85710   3.85968   3.86076   3.86604
 Alpha virt. eigenvalues --    3.86782   3.86837   3.87379   3.87834   3.88057
 Alpha virt. eigenvalues --    3.88420   3.88953   3.89052   3.89517   3.89688
 Alpha virt. eigenvalues --    3.90190   3.90386   3.90558   3.91187   3.91281
 Alpha virt. eigenvalues --    3.91845   3.92202   3.92601   3.93411   3.94072
 Alpha virt. eigenvalues --    3.94292   3.94921   3.95446   3.95736   3.95997
 Alpha virt. eigenvalues --    3.96203   3.96454   3.97243   3.97476   3.97938
 Alpha virt. eigenvalues --    3.98097   3.98693   3.98849   3.98948   3.99543
 Alpha virt. eigenvalues --    3.99777   3.99987   4.00045   4.00507   4.01241
 Alpha virt. eigenvalues --    4.01609   4.02106   4.02364   4.02872   4.03222
 Alpha virt. eigenvalues --    4.03456   4.03881   4.04231   4.04590   4.05028
 Alpha virt. eigenvalues --    4.05558   4.05705   4.06273   4.06629   4.06995
 Alpha virt. eigenvalues --    4.07756   4.08156   4.08598   4.08610   4.08984
 Alpha virt. eigenvalues --    4.09324   4.09762   4.09777   4.10268   4.10306
 Alpha virt. eigenvalues --    4.11134   4.11478   4.11600   4.11899   4.12241
 Alpha virt. eigenvalues --    4.12558   4.12625   4.12747   4.13722   4.14028
 Alpha virt. eigenvalues --    4.14195   4.14561   4.14735   4.15020   4.16043
 Alpha virt. eigenvalues --    4.16452   4.16896   4.17193   4.17533   4.17735
 Alpha virt. eigenvalues --    4.18136   4.18406   4.18646   4.19296   4.19381
 Alpha virt. eigenvalues --    4.20077   4.20389   4.20936   4.21548   4.21641
 Alpha virt. eigenvalues --    4.21779   4.22154   4.22529   4.22541   4.23423
 Alpha virt. eigenvalues --    4.23707   4.24069   4.24358   4.24522   4.24902
 Alpha virt. eigenvalues --    4.25494   4.25932   4.26021   4.26368   4.26898
 Alpha virt. eigenvalues --    4.27063   4.27770   4.28082   4.28861   4.29168
 Alpha virt. eigenvalues --    4.29459   4.29976   4.30572   4.30946   4.31513
 Alpha virt. eigenvalues --    4.32065   4.32429   4.32773   4.33075   4.33577
 Alpha virt. eigenvalues --    4.34262   4.34766   4.35114   4.35490   4.35687
 Alpha virt. eigenvalues --    4.36711   4.37114   4.37628   4.37716   4.38070
 Alpha virt. eigenvalues --    4.38916   4.39134   4.39754   4.40411   4.41326
 Alpha virt. eigenvalues --    4.41691   4.42269   4.43106   4.43597   4.43934
 Alpha virt. eigenvalues --    4.44172   4.45363   4.45607   4.46144   4.46410
 Alpha virt. eigenvalues --    4.47036   4.47250   4.48774   4.48944   4.49700
 Alpha virt. eigenvalues --    4.49940   4.50199   4.50616   4.50882   4.51252
 Alpha virt. eigenvalues --    4.52042   4.52503   4.53643   4.54239   4.54631
 Alpha virt. eigenvalues --    4.56294   4.56685   4.57565   4.58325   4.58630
 Alpha virt. eigenvalues --    4.59275   4.60084   4.60235   4.60250   4.61028
 Alpha virt. eigenvalues --    4.61244   4.61497   4.61870   4.61963   4.63211
 Alpha virt. eigenvalues --    4.63557   4.63952   4.64656   4.64815   4.66400
 Alpha virt. eigenvalues --    4.66814   4.67337   4.67911   4.68128   4.69135
 Alpha virt. eigenvalues --    4.69936   4.70448   4.71034   4.71879   4.72363
 Alpha virt. eigenvalues --    4.72629   4.73506   4.74381   4.74632   4.74881
 Alpha virt. eigenvalues --    4.75327   4.75867   4.76328   4.77242   4.77865
 Alpha virt. eigenvalues --    4.78203   4.79001   4.79276   4.79556   4.80761
 Alpha virt. eigenvalues --    4.81293   4.82147   4.83882   4.84482   4.84725
 Alpha virt. eigenvalues --    4.85072   4.86542   4.86821   4.87217   4.87472
 Alpha virt. eigenvalues --    4.88253   4.88625   4.90150   4.90774   4.90957
 Alpha virt. eigenvalues --    4.91266   4.91616   4.92300   4.92825   4.92878
 Alpha virt. eigenvalues --    4.93674   4.93904   4.94469   4.94604   4.94978
 Alpha virt. eigenvalues --    4.95296   4.95879   4.96679   4.97213   4.97364
 Alpha virt. eigenvalues --    4.97448   4.97870   4.98294   4.99018   4.99608
 Alpha virt. eigenvalues --    5.00038   5.00297   5.01221   5.02020   5.03343
 Alpha virt. eigenvalues --    5.03694   5.04186   5.04363   5.05126   5.05299
 Alpha virt. eigenvalues --    5.06069   5.06306   5.06524   5.08433   5.08910
 Alpha virt. eigenvalues --    5.09067   5.09748   5.09976   5.11071   5.11407
 Alpha virt. eigenvalues --    5.11821   5.12741   5.12945   5.13164   5.13712
 Alpha virt. eigenvalues --    5.14197   5.14520   5.15421   5.16076   5.16537
 Alpha virt. eigenvalues --    5.16912   5.17303   5.17657   5.18214   5.19123
 Alpha virt. eigenvalues --    5.19497   5.20276   5.20886   5.21150   5.22332
 Alpha virt. eigenvalues --    5.22610   5.23297   5.24338   5.25016   5.25855
 Alpha virt. eigenvalues --    5.26502   5.26797   5.27706   5.28469   5.28572
 Alpha virt. eigenvalues --    5.28712   5.29534   5.30244   5.30667   5.31261
 Alpha virt. eigenvalues --    5.32041   5.32750   5.32755   5.32930   5.34109
 Alpha virt. eigenvalues --    5.34855   5.35032   5.35455   5.35984   5.36943
 Alpha virt. eigenvalues --    5.37255   5.37371   5.37659   5.38012   5.38808
 Alpha virt. eigenvalues --    5.39153   5.39411   5.40757   5.41279   5.42023
 Alpha virt. eigenvalues --    5.42939   5.43657   5.44858   5.46969   5.49180
 Alpha virt. eigenvalues --    5.49689   5.50481   5.52163   5.52497   5.52916
 Alpha virt. eigenvalues --    5.53146   5.54030   5.55130   5.56139   5.56687
 Alpha virt. eigenvalues --    5.58315   5.59028   5.59414   5.60258   5.60436
 Alpha virt. eigenvalues --    5.60975   5.61260   5.62347   5.62692   5.63166
 Alpha virt. eigenvalues --    5.63336   5.63878   5.65418   5.66018   5.66502
 Alpha virt. eigenvalues --    5.68210   5.68565   5.69367   5.72688   5.73701
 Alpha virt. eigenvalues --    5.74446   5.75266   5.77118   5.78055   5.80534
 Alpha virt. eigenvalues --    5.82280   5.83963   5.85780   5.89463   5.92000
 Alpha virt. eigenvalues --    5.92962   5.94153   5.94799   5.96668   5.97205
 Alpha virt. eigenvalues --    6.00309   6.01884   6.03318   6.04941   6.06555
 Alpha virt. eigenvalues --    6.06940   6.12533   6.14050   6.15994   6.20669
 Alpha virt. eigenvalues --    6.37093   6.39325   6.46771   6.58652   6.65194
 Alpha virt. eigenvalues --    6.65286   6.75875   6.84356   6.93470   6.94788
 Alpha virt. eigenvalues --    6.96578   6.98369   6.98971   6.99856   7.04527
 Alpha virt. eigenvalues --    7.10828   7.16941   7.21720   7.23797   7.26816
 Alpha virt. eigenvalues --    7.33153   7.33227   7.34225   8.45751   8.47714
 Alpha virt. eigenvalues --    8.55981   8.60545   8.82062   8.87271   8.90357
 Alpha virt. eigenvalues --    8.91955   8.93511   9.00452  15.86306  22.91214
 Alpha virt. eigenvalues --   22.93333  22.96476  23.00956  23.03298  23.08204
 Alpha virt. eigenvalues --   23.10924  23.11355  23.18717  23.19724  23.21215
 Alpha virt. eigenvalues --   23.22231  23.25549  23.28767  23.30451  23.32451
 Alpha virt. eigenvalues --   23.34601  23.36333  23.38238  23.41339  23.47755
 Alpha virt. eigenvalues --   23.55878  23.56291  23.60718  23.70872  23.73014
 Alpha virt. eigenvalues --   23.75135  23.76786  23.86445  23.87694  23.91416
 Alpha virt. eigenvalues --   24.16835  31.89497  32.56600  32.81222  33.14163
 Alpha virt. eigenvalues --   33.23064  33.27574  33.38654  57.37703  57.57309
          Condensed to atoms (all electrons):
 Mulliken charges:
               1
     1  C    0.110954
     2  N   -0.085827
     3  B    0.338934
     4  N   -0.092189
     5  C    0.113009
     6  C    0.129888
     7  C   -0.271186
     8  C   -0.147288
     9  C   -0.122116
    10  C    0.181912
    11  C   -0.108992
    12  C   -0.195771
    13  N   -0.382369
    14  N    0.425536
    15  N   -0.172984
    16  C   -0.013120
    17  C   -0.084972
    18  C    0.017104
    19  C    0.034169
    20  C   -0.076696
    21  C   -0.003716
    22  C   -0.425933
    23  C   -0.429557
    24  C   -0.116818
    25  C   -0.078045
    26  C    0.147479
    27  N   -0.301057
    28  C   -0.059190
    29  C   -0.139053
    30  C   -0.110999
    31  C   -0.135508
    32  C   -0.099578
    33  C   -0.070605
    34  C    0.160772
    35  N   -0.024421
    36  C    0.049800
    37  C   -0.142136
    38  C   -0.073006
    39  C   -0.106395
    40  C   -0.304901
    41  F   -0.338643
    42  F   -0.339452
    43  H    0.172743
    44  H    0.167379
    45  H    0.155455
    46  H    0.178901
    47  H    0.166306
    48  H    0.168954
    49  H    0.159418
    50  H    0.133980
    51  H    0.167691
    52  H    0.132900
    53  H    0.165884
    54  H    0.156300
    55  H    0.129646
    56  H    0.127890
    57  H    0.139662
    58  H    0.162991
    59  H    0.166186
    60  H    0.145654
    61  H    0.140672
    62  H    0.154031
    63  H    0.184188
    64  H    0.186415
    65  H    0.187036
    66  H    0.157078
    67  H    0.188148
    68  H    0.156573
    69  H    0.190887
 Sum of Mulliken charges =   1.00000
 Mulliken charges with hydrogens summed into heavy atoms:
               1
     1  C    0.110954
     2  N   -0.085827
     3  B    0.338934
     4  N   -0.092189
     5  C    0.113009
     6  C    0.129888
     7  C   -0.271186
     8  C    0.025455
     9  C    0.045263
    10  C    0.181912
    11  C    0.046463
    12  C   -0.016869
    13  N   -0.382369
    14  N    0.425536
    15  N   -0.172984
    16  C   -0.013120
    17  C    0.081334
    18  C    0.017104
    19  C    0.034169
    20  C    0.092258
    21  C   -0.003716
    22  C    0.035155
    23  C    0.025526
    24  C    0.012828
    25  C    0.049844
    26  C    0.147479
    27  N   -0.301057
    28  C    0.080472
    29  C    0.023939
    30  C    0.055187
    31  C    0.010147
    32  C    0.041094
    33  C    0.083426
    34  C    0.160772
    35  N   -0.024421
    36  C    0.233988
    37  C    0.044279
    38  C    0.114030
    39  C    0.050683
    40  C    0.230707
    41  F   -0.338643
    42  F   -0.339452
 Electronic spatial extent (au):  <R**2>=          31037.9942
 Charge=              1.0000 electrons
 Dipole moment (field-independent basis, Debye):
    X=            -16.8551    Y=            -19.7536    Z=             -0.0344  Tot=             25.9673
 Quadrupole moment (field-independent basis, Debye-Ang):
   XX=            -87.7177   YY=           -101.6150   ZZ=           -244.6316
   XY=             80.7036   XZ=             -0.8495   YZ=              1.9843
 Traceless Quadrupole moment (field-independent basis, Debye-Ang):
   XX=             56.9371   YY=             43.0398   ZZ=            -99.9769
   XY=             80.7036   XZ=             -0.8495   YZ=              1.9843
 Octapole moment (field-independent basis, Debye-Ang**2):
  XXX=          -1006.9412  YYY=           -614.4616  ZZZ=              5.4564  XYY=           -585.8035
  XXY=           -323.1406  XXZ=              2.1536  XZZ=             30.7698  YZZ=            -14.7044
  YYZ=            -13.4733  XYZ=            -23.4336
 Hexadecapole moment (field-independent basis, Debye-Ang**3):
 XXXX=         -22711.5874 YYYY=          -9684.9740 ZZZZ=           -756.5364 XXXY=           2127.5239
 XXXZ=            230.5821 YYYX=           2371.7504 YYYZ=           -148.6813 ZZZX=             21.8286
 ZZZY=              8.4613 XXYY=          -3451.7095 XXZZ=          -4743.6654 YYZZ=          -2693.5553
 XXYZ=            144.3610 YYXZ=             72.5278 ZZXY=             53.1220
 N-N= 4.465875685057D+03 E-N=-1.319848779752D+04  KE= 1.833371168074D+03
 No NMR shielding tensors so no spin-rotation constants.
 Leave Link  601 at Mon Nov 10 11:07:09 2025, MaxMem= 30870077440 cpu:             132.7 elap:               2.6
 (Enter /public/software/gauss/g16/l9999.exe)
 1\1\GINC-CU048\SP\RM062X\def2TZVPP\C32H27B1F2N7(1+)\BAIDING\10-Nov-202
 5\0\\#p M062X/DEF2TZVPP scrf=(solvent=water) em=GD3\\Energy calculatio
 n for M100036162\\1,1\C,0,1.482228,-0.968336,0.126563\N,0,0.108904,-0.
 838449,-0.007882\B,0,-0.673473,0.50115,0.038938\N,0,0.365127,1.651956,
 -0.025816\C,0,1.755356,1.457833,-0.017271\C,0,2.309878,0.178043,0.0983
 79\C,0,3.790532,0.012169,0.18159\C,0,4.459006,0.209011,1.398007\C,0,5.
 837805,0.04174,1.483783\C,0,6.568245,-0.316648,0.345262\C,0,5.913824,-
 0.509445,-0.878263\C,0,4.532557,-0.349969,-0.950883\N,0,7.970287,-0.46
 2757,0.528494\N,0,8.663984,-0.787384,-0.442807\N,0,9.419853,-1.080416,
 -1.244603\C,0,1.794236,-2.364266,0.26694\C,0,0.582609,-3.035762,0.2081
 97\C,0,-0.450589,-2.085682,0.037504\C,0,0.12557,2.984372,-0.195135\C,0
 ,1.369076,3.655599,-0.323613\C,0,2.392713,2.738834,-0.199645\C,0,3.848
 3,3.080418,-0.274658\C,0,3.122079,-3.034288,0.448588\C,0,-1.131816,3.6
 90672,-0.231586\C,0,-2.353938,3.28631,0.187822\C,0,-3.555176,4.118369,
 0.123238\N,0,-3.468886,5.356979,-0.418766\C,0,-4.580147,6.095958,-0.46
 3348\C,0,-5.823346,5.668912,0.012878\C,0,-5.912798,4.394854,0.568969\C
 ,0,-4.76491,3.60885,0.625212\C,0,-1.865372,-2.296941,-0.103572\C,0,-2.
 457885,-3.509771,0.052437\C,0,-3.880503,-3.745072,-0.089784\N,0,-4.346
 027,-5.04207,-0.076217\C,0,-5.671005,-5.320256,-0.183734\C,0,-6.612116
 ,-4.32444,-0.319223\C,0,-6.178935,-2.994886,-0.34403\C,0,-4.82859,-2.7
 16908,-0.226498\C,0,-3.41129,-6.184314,0.04443\F,0,-1.4048,0.556833,1.
 238165\F,0,-1.556332,0.577687,-1.044109\H,0,3.897452,0.48901,2.283402\
 H,0,6.355423,0.187425,2.425761\H,0,6.471018,-0.783994,-1.768573\H,0,4.
 02798,-0.504591,-1.899242\H,0,0.449807,-4.107324,0.26443\H,0,1.474609,
 4.721377,-0.475672\H,0,4.366914,2.494743,-1.039039\H,0,3.960159,4.1399
 3,-0.518265\H,0,4.360978,2.893553,0.673649\H,0,2.967736,-4.094795,0.66
 3732\H,0,3.744836,-2.959653,-0.448138\H,0,3.692676,-2.596428,1.272334\
 H,0,-1.038367,4.706354,-0.605903\H,0,-2.488085,2.308726,0.634212\H,0,-
 4.480757,7.086284,-0.902641\H,0,-6.686949,6.321648,-0.05442\H,0,-6.856
 533,4.019246,0.951834\H,0,-4.791567,2.610677,1.050219\H,0,-2.452723,-1
 .427048,-0.371867\H,0,-1.836417,-4.359125,0.302366\H,0,-5.937592,-6.36
 8258,-0.159226\H,0,-7.658248,-4.590717,-0.401688\H,0,-6.891778,-2.1841
 78,-0.447114\H,0,-4.487685,-1.690233,-0.225811\H,0,-2.907145,-6.152195
 ,1.010983\H,0,-3.985855,-7.103704,-0.032465\H,0,-2.678627,-6.14792,-0.
 762198\\Version=ES64L-G16RevA.03\State=1-A\HF=-1843.4013955\RMSD=4.369
 e-09\Dipole=-6.6312963,-7.7716813,-0.0135209\Quadrupole=42.3313305,31.
 9990186,-74.330349,60.0011343,-0.6316118,1.4753094\PG=C01 [X(C32H27B1F
 2N7)]\\@



 WE LOSE BECAUSE WE WIN

 GAMBLERS,

 RECOLLECTING WHICH,

 TOSS THEIR DICE AGAIN....


                          EMILY DICKINSON  BOLTS OF MELODY NO. 533
 Job cpu time:       0 days 15 hours 36 minutes  7.7 seconds.
 Elapsed time:       0 days  0 hours 14 minutes 53.2 seconds.
 File lengths (MBytes):  RWF=   1881 Int=      0 D2E=      0 Chk=    165 Scr=      1
 Normal termination of Gaussian 16 at Mon Nov 10 11:07:10 2025.
