 Entering Gaussian System, Link 0=g16
 Input=M100032403_sp.gjf
 Output=M100032403_sp.log
 Initial command:
 /public/software/gauss/g16/l1.exe "/public/home/baiding/1101_v2_sp/tmp_M100032403_sp_1568608/Gau-4124604.inp" -scrdir="/public/home/baiding/1101_v2_sp/tmp_M100032403_sp_1568608/"
 Entering Link 1 = /public/software/gauss/g16/l1.exe PID=   4124605.
  
 Copyright (c) 1988,1990,1992,1993,1995,1998,2003,2009,2016,
            Gaussian, Inc.  All Rights Reserved.
  
 This is part of the Gaussian(R) 16 program.  It is based on
 the Gaussian(R) 09 system (copyright 2009, Gaussian, Inc.),
 the Gaussian(R) 03 system (copyright 2003, Gaussian, Inc.),
 the Gaussian(R) 98 system (copyright 1998, Gaussian, Inc.),
 the Gaussian(R) 94 system (copyright 1995, Gaussian, Inc.),
 the Gaussian 92(TM) system (copyright 1992, Gaussian, Inc.),
 the Gaussian 90(TM) system (copyright 1990, Gaussian, Inc.),
 the Gaussian 88(TM) system (copyright 1988, Gaussian, Inc.),
 the Gaussian 86(TM) system (copyright 1986, Carnegie Mellon
 University), and the Gaussian 82(TM) system (copyright 1983,
 Carnegie Mellon University). Gaussian is a federally registered
 trademark of Gaussian, Inc.
  
 This software contains proprietary and confidential information,
 including trade secrets, belonging to Gaussian, Inc.
  
 This software is provided under written license and may be
 used, copied, transmitted, or stored only in accord with that
 written license.
  
 The following legend is applicable only to US Government
 contracts under FAR:
  
                    RESTRICTED RIGHTS LEGEND
  
 Use, reproduction and disclosure by the US Government is
 subject to restrictions as set forth in subparagraphs (a)
 and (c) of the Commercial Computer Software - Restricted
 Rights clause in FAR 52.227-19.
  
 Gaussian, Inc.
 340 Quinnipiac St., Bldg. 40, Wallingford CT 06492
  
  
 ---------------------------------------------------------------
 Warning -- This program may not be used in any manner that
 competes with the business of Gaussian, Inc. or will provide
 assistance to any competitor of Gaussian, Inc.  The licensee
 of this program is prohibited from giving any competitor of
 Gaussian, Inc. access to this program.  By using this program,
 the user acknowledges that Gaussian, Inc. is engaged in the
 business of creating and licensing software in the field of
 computational chemistry and represents and warrants to the
 licensee that it is not a competitor of Gaussian, Inc. and that
 it will not use this program in any manner prohibited above.
 ---------------------------------------------------------------
  

 Cite this work as:
 Gaussian 16, Revision A.03,
 M. J. Frisch, G. W. Trucks, H. B. Schlegel, G. E. Scuseria, 
 M. A. Robb, J. R. Cheeseman, G. Scalmani, V. Barone, 
 G. A. Petersson, H. Nakatsuji, X. Li, M. Caricato, A. V. Marenich, 
 J. Bloino, B. G. Janesko, R. Gomperts, B. Mennucci, H. P. Hratchian, 
 J. V. Ortiz, A. F. Izmaylov, J. L. Sonnenberg, D. Williams-Young, 
 F. Ding, F. Lipparini, F. Egidi, J. Goings, B. Peng, A. Petrone, 
 T. Henderson, D. Ranasinghe, V. G. Zakrzewski, J. Gao, N. Rega, 
 G. Zheng, W. Liang, M. Hada, M. Ehara, K. Toyota, R. Fukuda, 
 J. Hasegawa, M. Ishida, T. Nakajima, Y. Honda, O. Kitao, H. Nakai, 
 T. Vreven, K. Throssell, J. A. Montgomery, Jr., J. E. Peralta, 
 F. Ogliaro, M. J. Bearpark, J. J. Heyd, E. N. Brothers, K. N. Kudin, 
 V. N. Staroverov, T. A. Keith, R. Kobayashi, J. Normand, 
 K. Raghavachari, A. P. Rendell, J. C. Burant, S. S. Iyengar, 
 J. Tomasi, M. Cossi, J. M. Millam, M. Klene, C. Adamo, R. Cammi, 
 J. W. Ochterski, R. L. Martin, K. Morokuma, O. Farkas, 
 J. B. Foresman, and D. J. Fox, Gaussian, Inc., Wallingford CT, 2016.
 
 ******************************************
 Gaussian 16:  ES64L-G16RevA.03 25-Dec-2016
                 6-Nov-2025 
 ******************************************
 %nprocshared=64
 Will use up to   64 processors via shared memory.
 %mem=230GB
 %chk=M100032403_sp.chk
 ----------------------------------------------
 #p M062X/DEF2TZVPP scrf=(solvent=water) em=GD3
 ----------------------------------------------
 1/38=1,172=1/1;
 2/12=2,17=6,18=5,40=1/2;
 3/5=44,7=202,11=2,25=1,30=1,70=2201,72=1,74=-55,124=31/1,2,3;
 4//1;
 5/5=2,38=5,53=1/2;
 6/7=2,8=2,9=2,10=2,28=1/1;
 99/5=1,9=1/99;
 Leave Link    1 at Thu Nov  6 05:31:16 2025, MaxMem= 30870077440 cpu:               9.1 elap:               0.1
 (Enter /public/software/gauss/g16/l101.exe)
 ---------------------------------
 Energy calculation for M100032403
 ---------------------------------
 Symbolic Z-matrix:
 Charge =  0 Multiplicity = 1
 C                     4.38057   3.55775  -1.13768 
 C                     3.38251   2.49661  -0.80104 
 C                     3.67941   1.13196  -0.48601 
 C                     4.91493   0.52191  -0.36867 
 C                     5.03943  -0.81361   0.02769 
 C                     6.16956  -1.63749   0.222 
 C                     5.69773  -2.88478   0.63619 
 C                     4.29766  -2.79539   0.68556 
 N                     3.89996  -1.55527   0.32247 
 B                     2.4345   -1.05186   0.21935 
 F                     1.79949  -1.16262   1.45764 
 F                     1.75794  -1.84414  -0.72476 
 N                     2.48089   0.44304  -0.24203 
 C                     1.46088   1.34111  -0.38525 
 C                     0.04192   1.14016  -0.24382 
 C                    -0.64644  -0.03104  -0.22658 
 C                    -2.08709  -0.21061  -0.13753 
 C                    -2.6281   -1.37923  -0.71881 
 C                    -3.9849   -1.62419  -0.83031 
 C                    -4.93888  -0.68195  -0.36742 
 N                    -6.28803  -0.87621  -0.51603 
 C                    -6.78001  -2.18079  -0.95383 
 C                    -7.22634   0.0003    0.18217 
 C                    -4.42784   0.47573   0.27012 
 C                    -3.06077   0.67568   0.38115 
 N                    -2.68682   1.84138   1.19436 
 O                    -3.31376   2.89209   1.02887 
 O                    -1.79564   1.70697   2.03532 
 C                     2.0113    2.61397  -0.71927 
 H                     5.10322   3.69764  -0.32632 
 H                     4.95151   3.29659  -2.0356 
 H                     3.88097   4.51239  -1.31755 
 H                     5.80979   1.09902  -0.57509 
 H                     7.1962   -1.33229   0.0712 
 H                     6.28091  -3.76206   0.87889 
 H                     3.57735  -3.55366   0.96115 
 H                    -0.50164   2.07962  -0.21163 
 H                    -0.10314  -0.95334  -0.39774 
 H                    -1.93474  -2.11192  -1.1208 
 H                    -4.30766  -2.55125  -1.2858 
 H                    -6.54342  -2.97916  -0.23754 
 H                    -7.8622   -2.12654  -1.06691 
 H                    -6.35682  -2.45254  -1.92482 
 H                    -7.13367  -0.07333   1.27416 
 H                    -7.07779   1.04436  -0.10757 
 H                    -8.24128  -0.28015  -0.09739 
 H                    -5.08849   1.20248   0.7207 
 H                     1.42144   3.50459  -0.8908 
 
 ITRead=  0  0  0  0  0  0  0  0  0  0  0  0  0  0  0  0  0  0  0  0
 ITRead=  0  0  0  0  0  0  0  0  0  0  0  0  0  0  0  0  0  0  0  0
 ITRead=  0  0  0  0  0  0  0  0
 MicOpt= -1 -1 -1 -1 -1 -1 -1 -1 -1 -1 -1 -1 -1 -1 -1 -1 -1 -1 -1 -1
 MicOpt= -1 -1 -1 -1 -1 -1 -1 -1 -1 -1 -1 -1 -1 -1 -1 -1 -1 -1 -1 -1
 MicOpt= -1 -1 -1 -1 -1 -1 -1 -1
 NAtoms=     48 NQM=       48 NQMF=       0 NMMI=      0 NMMIF=      0
                NMic=       0 NMicF=      0.
                    Isotopes and Nuclear Properties:
 (Nuclear quadrupole moments (NQMom) in fm**2, nuclear magnetic moments (NMagM)
  in nuclear magnetons)

  Atom         1           2           3           4           5           6           7           8           9          10
 IAtWgt=          12          12          12          12          12          12          12          12          14          11
 AtmWgt=  12.0000000  12.0000000  12.0000000  12.0000000  12.0000000  12.0000000  12.0000000  12.0000000  14.0030740  11.0093053
 NucSpn=           0           0           0           0           0           0           0           0           2           3
 AtZEff=  -0.0000000  -0.0000000  -0.0000000  -0.0000000  -0.0000000  -0.0000000  -0.0000000  -0.0000000  -0.0000000  -0.0000000
 NQMom=    0.0000000   0.0000000   0.0000000   0.0000000   0.0000000   0.0000000   0.0000000   0.0000000   2.0440000   4.0590000
 NMagM=    0.0000000   0.0000000   0.0000000   0.0000000   0.0000000   0.0000000   0.0000000   0.0000000   0.4037610   2.6886370
 AtZNuc=   6.0000000   6.0000000   6.0000000   6.0000000   6.0000000   6.0000000   6.0000000   6.0000000   7.0000000   5.0000000

  Atom        11          12          13          14          15          16          17          18          19          20
 IAtWgt=          19          19          14          12          12          12          12          12          12          12
 AtmWgt=  18.9984033  18.9984033  14.0030740  12.0000000  12.0000000  12.0000000  12.0000000  12.0000000  12.0000000  12.0000000
 NucSpn=           1           1           2           0           0           0           0           0           0           0
 AtZEff=  -0.0000000  -0.0000000  -0.0000000  -0.0000000  -0.0000000  -0.0000000  -0.0000000  -0.0000000  -0.0000000  -0.0000000
 NQMom=    0.0000000   0.0000000   2.0440000   0.0000000   0.0000000   0.0000000   0.0000000   0.0000000   0.0000000   0.0000000
 NMagM=    2.6288670   2.6288670   0.4037610   0.0000000   0.0000000   0.0000000   0.0000000   0.0000000   0.0000000   0.0000000
 AtZNuc=   9.0000000   9.0000000   7.0000000   6.0000000   6.0000000   6.0000000   6.0000000   6.0000000   6.0000000   6.0000000

  Atom        21          22          23          24          25          26          27          28          29          30
 IAtWgt=          14          12          12          12          12          14          16          16          12           1
 AtmWgt=  14.0030740  12.0000000  12.0000000  12.0000000  12.0000000  14.0030740  15.9949146  15.9949146  12.0000000   1.0078250
 NucSpn=           2           0           0           0           0           2           0           0           0           1
 AtZEff=  -0.0000000  -0.0000000  -0.0000000  -0.0000000  -0.0000000  -0.0000000  -0.0000000  -0.0000000  -0.0000000  -0.0000000
 NQMom=    2.0440000   0.0000000   0.0000000   0.0000000   0.0000000   2.0440000   0.0000000   0.0000000   0.0000000   0.0000000
 NMagM=    0.4037610   0.0000000   0.0000000   0.0000000   0.0000000   0.4037610   0.0000000   0.0000000   0.0000000   2.7928460
 AtZNuc=   7.0000000   6.0000000   6.0000000   6.0000000   6.0000000   7.0000000   8.0000000   8.0000000   6.0000000   1.0000000

  Atom        31          32          33          34          35          36          37          38          39          40
 IAtWgt=           1           1           1           1           1           1           1           1           1           1
 AtmWgt=   1.0078250   1.0078250   1.0078250   1.0078250   1.0078250   1.0078250   1.0078250   1.0078250   1.0078250   1.0078250
 NucSpn=           1           1           1           1           1           1           1           1           1           1
 AtZEff=  -0.0000000  -0.0000000  -0.0000000  -0.0000000  -0.0000000  -0.0000000  -0.0000000  -0.0000000  -0.0000000  -0.0000000
 NQMom=    0.0000000   0.0000000   0.0000000   0.0000000   0.0000000   0.0000000   0.0000000   0.0000000   0.0000000   0.0000000
 NMagM=    2.7928460   2.7928460   2.7928460   2.7928460   2.7928460   2.7928460   2.7928460   2.7928460   2.7928460   2.7928460
 AtZNuc=   1.0000000   1.0000000   1.0000000   1.0000000   1.0000000   1.0000000   1.0000000   1.0000000   1.0000000   1.0000000

  Atom        41          42          43          44          45          46          47          48
 IAtWgt=           1           1           1           1           1           1           1           1
 AtmWgt=   1.0078250   1.0078250   1.0078250   1.0078250   1.0078250   1.0078250   1.0078250   1.0078250
 NucSpn=           1           1           1           1           1           1           1           1
 AtZEff=  -0.0000000  -0.0000000  -0.0000000  -0.0000000  -0.0000000  -0.0000000  -0.0000000  -0.0000000
 NQMom=    0.0000000   0.0000000   0.0000000   0.0000000   0.0000000   0.0000000   0.0000000   0.0000000
 NMagM=    2.7928460   2.7928460   2.7928460   2.7928460   2.7928460   2.7928460   2.7928460   2.7928460
 AtZNuc=   1.0000000   1.0000000   1.0000000   1.0000000   1.0000000   1.0000000   1.0000000   1.0000000
 Leave Link  101 at Thu Nov  6 05:31:16 2025, MaxMem= 30870077440 cpu:               3.6 elap:               0.1
 (Enter /public/software/gauss/g16/l202.exe)
                          Input orientation:                          
 ---------------------------------------------------------------------
 Center     Atomic      Atomic             Coordinates (Angstroms)
 Number     Number       Type             X           Y           Z
 ---------------------------------------------------------------------
      1          6           0        4.380574    3.557749   -1.137681
      2          6           0        3.382512    2.496611   -0.801036
      3          6           0        3.679407    1.131962   -0.486013
      4          6           0        4.914927    0.521907   -0.368673
      5          6           0        5.039427   -0.813607    0.027688
      6          6           0        6.169562   -1.637489    0.222004
      7          6           0        5.697726   -2.884777    0.636186
      8          6           0        4.297658   -2.795386    0.685558
      9          7           0        3.899955   -1.555271    0.322474
     10          5           0        2.434495   -1.051856    0.219350
     11          9           0        1.799492   -1.162622    1.457635
     12          9           0        1.757941   -1.844142   -0.724757
     13          7           0        2.480892    0.443042   -0.242026
     14          6           0        1.460883    1.341105   -0.385252
     15          6           0        0.041923    1.140163   -0.243821
     16          6           0       -0.646436   -0.031036   -0.226580
     17          6           0       -2.087085   -0.210612   -0.137527
     18          6           0       -2.628096   -1.379229   -0.718808
     19          6           0       -3.984904   -1.624186   -0.830313
     20          6           0       -4.938881   -0.681948   -0.367421
     21          7           0       -6.288026   -0.876211   -0.516026
     22          6           0       -6.780009   -2.180792   -0.953832
     23          6           0       -7.226339    0.000303    0.182169
     24          6           0       -4.427842    0.475728    0.270119
     25          6           0       -3.060770    0.675675    0.381147
     26          7           0       -2.686816    1.841382    1.194357
     27          8           0       -3.313762    2.892086    1.028866
     28          8           0       -1.795636    1.706971    2.035321
     29          6           0        2.011304    2.613965   -0.719273
     30          1           0        5.103216    3.697641   -0.326321
     31          1           0        4.951506    3.296586   -2.035596
     32          1           0        3.880970    4.512392   -1.317554
     33          1           0        5.809792    1.099024   -0.575094
     34          1           0        7.196195   -1.332288    0.071199
     35          1           0        6.280909   -3.762058    0.878891
     36          1           0        3.577354   -3.553661    0.961148
     37          1           0       -0.501635    2.079616   -0.211634
     38          1           0       -0.103142   -0.953338   -0.397735
     39          1           0       -1.934741   -2.111919   -1.120798
     40          1           0       -4.307655   -2.551245   -1.285799
     41          1           0       -6.543422   -2.979159   -0.237544
     42          1           0       -7.862202   -2.126539   -1.066906
     43          1           0       -6.356817   -2.452543   -1.924819
     44          1           0       -7.133666   -0.073327    1.274155
     45          1           0       -7.077793    1.044360   -0.107565
     46          1           0       -8.241279   -0.280145   -0.097390
     47          1           0       -5.088493    1.202477    0.720702
     48          1           0        1.421437    3.504591   -0.890795
 ---------------------------------------------------------------------
                    Distance matrix (angstroms):
                    1          2          3          4          5
     1  C    0.000000
     2  C    1.495149   0.000000
     3  C    2.607825   1.431661   0.000000
     4  C    3.176986   2.536669   1.382912   0.000000
     5  C    4.571753   3.793375   2.428741   1.398642   0.000000
     6  C    5.660364   5.089700   3.791045   2.566320   1.412000
     7  C    6.810847   6.032011   4.633264   3.637033   2.256850
     8  C    6.610098   5.572494   4.144741   3.535089   2.215956
     9  N    5.339103   4.236481   2.814874   2.412990   1.391172
    10  B    5.184324   3.812026   2.610824   2.995838   2.622817
    11  F    5.973236   4.582307   3.546402   3.984843   3.558615
    12  F    6.019064   4.635427   3.550525   3.961255   3.520842
    13  N    3.756646   2.311397   1.403773   2.438603   2.863217
    14  C    3.742226   2.280511   2.230637   3.549899   4.197533
    15  C    5.046543   3.648284   3.645547   4.913654   5.372707
    16  C    6.243422   4.790764   4.486957   5.590590   5.745094
    17  C    7.551918   6.138875   5.930968   7.044018   7.153885
    18  C    8.583162   7.152364   6.793001   7.786791   7.724513
    19  C    9.845209   8.441602   8.152089   9.166560   9.101195
    20  C   10.267452   8.918343   8.807907   9.927074   9.986995
    21  N   11.570025  10.245802  10.167762  11.290819  11.340667
    22  C   12.550827  11.188310  10.981465  12.017426  11.938662
    23  C   12.211382  10.942850  10.984645  12.164943  12.293711
    24  C    9.437635   8.138364   8.168835   9.364695   9.557737
    25  C    8.123225   6.799209   6.811032   8.012342   8.243548
    26  N    7.637560   6.422434   6.622365   7.872139   8.252570
    27  O    8.021212   6.953059   7.368671   8.676531   9.192948
    28  O    7.186021   5.956649   6.055069   7.226010   7.556586
    29  C    2.584421   1.378647   2.243504   3.595922   4.634191
    30  H    1.095484   2.151430   2.938612   3.181593   4.525566
    31  H    1.095637   2.150777   2.950431   3.237100   4.599843
    32  H    1.092383   2.139772   3.487032   4.230061   5.614086
    33  H    2.899051   2.809980   2.132501   1.084646   2.148247
    34  H    5.770752   5.474070   4.330221   2.972492   2.218687
    35  H    7.826711   7.098859   5.708083   4.666335   3.310466
    36  H    7.458042   6.304685   4.905074   4.490855   3.242977
    37  H    5.184439   3.950681   4.295864   5.638285   6.255508
    38  H    6.403213   4.920832   4.320179   5.230508   5.162027
    39  H    8.486968   7.043719   6.514935   7.377038   7.186352
    40  H   10.622009   9.211651   8.831695   9.764292   9.597530
    41  H   12.762253  11.350143  11.021311  11.982004  11.786533
    42  H   13.498211  12.160913  12.006832  13.067395  13.014375
    43  H   12.330238  10.982329  10.753819  11.761001  11.677875
    44  H   12.311758  11.022749  11.021500  12.174637  12.259114
    45  H   11.775926  10.583379  10.764211  12.006934  12.259582
    46  H   13.233397  11.971550  12.010322  13.183423  13.292004
    47  H    9.932982   8.703355   8.850831  10.085550  10.349861
    48  H    2.969894   2.206784   3.300249   4.623147   5.707915
                    6          7          8          9         10
     6  C    0.000000
     7  C    1.396389   0.000000
     8  C    2.249363   1.403787   0.000000
     9  N    2.273317   2.257871   1.351992   0.000000
    10  B    3.780701   3.765903   2.593959   1.552944   0.000000
    11  F    4.566158   4.340141   3.082670   2.419651   1.396011
    12  F    4.516798   4.296160   3.056798   2.401742   1.405980
    13  N    4.260307   4.711014   3.827332   2.515085   1.565165
    14  C    5.604680   6.070606   5.128790   3.852135   2.653248
    15  C    6.743909   6.997332   5.870568   4.740302   3.277785
    16  C    7.017104   7.009750   5.737394   4.826430   3.276135
    17  C    8.386743   8.267592   6.937108   6.153402   4.612997
    18  C    8.851588   8.568664   7.207206   6.612920   5.159180
    19  C   10.208855   9.873856   8.501200   7.968982   6.529781
    20  C   11.165034  10.908579   9.533574   8.908629   7.405930
    21  N   12.502629  12.207382  10.825144  10.244958   8.755227
    22  C   13.014191  12.598318  11.215170  10.774129   9.357240
    23  C   13.495707  13.249954  11.868942  11.235387   9.718031
    24  C   10.806154  10.674930   9.327761   8.572042   7.030488
    25  C    9.517094   9.457966   8.141707   7.309737   5.762680
    26  N    9.564698   9.640989   8.398891   7.462103   5.962323
    27  O   10.540470  10.711361   9.507834   8.503863   7.018009
    28  O    8.827112   8.899000   7.695538   6.783496   5.366832
    29  C    6.020961   6.757451   6.038381   4.694121   3.807670
    30  H    5.468214   6.678929   6.620591   5.427878   5.475176
    31  H    5.561071   6.775287   6.704052   5.496069   5.507184
    32  H    6.740099   7.863575   7.588788   6.285427   5.951069
    33  H    2.872856   4.165385   4.363739   3.390927   4.080448
    34  H    1.081603   2.230435   3.304483   3.313315   4.772251
    35  H    2.226588   1.081032   2.214750   3.293699   4.751325
    36  H    3.307203   2.246994   1.081558   2.122625   2.848757
    37  H    7.649169   7.987244   6.899552   5.733382   4.314247
    38  H    6.340265   6.200768   4.892209   4.111668   2.613446
    39  H    8.228483   7.870124   6.524787   6.036271   4.691477
    40  H   10.624523  10.193769   8.831606   8.422789   7.068962
    41  H   12.791842  12.272653  10.881861  10.554866   9.193815
    42  H   14.099321  13.687479  12.303686  11.857701  10.432227
    43  H   12.735122  12.331163  10.974946  10.538349   9.156776
    44  H   13.436127  13.151269  11.765680  11.173301   9.675734
    45  H   13.520109  13.386753  12.032189  11.289551   9.746005
    46  H   14.478147  14.199229  12.812665  12.215228  10.708315
    47  H   11.621442  11.534960  10.202155   9.410417   7.869480
    48  H    7.086889   7.838517   7.102622   5.763443   4.797908
                   11         12         13         14         15
    11  F    0.000000
    12  F    2.286707   0.000000
    13  N    2.435428   2.446814   0.000000
    14  C    3.127225   3.217034   1.366546   0.000000
    15  C    3.359586   3.475931   2.536642   1.440079   0.000000
    16  C    3.177992   3.052304   3.163095   2.519671   1.358618
    17  C    4.307708   4.218706   4.615690   3.880370   2.523602
    18  C    4.938356   4.410612   5.445158   4.922522   3.701615
    19  C    6.237546   5.748025   6.813665   6.216721   4.919444
    20  C    6.997682   6.806307   7.505622   6.711933   5.305071
    21  N    8.329785   8.106667   8.871833   8.060967   6.648918
    22  C    8.969932   8.547655   9.651708   8.979941   7.620473
    23  C    9.189387   9.216386   9.726577   8.808379   7.369422
    24  C    6.547830   6.680979   6.927768   5.987944   4.548011
    25  C    5.306629   5.549097   5.581441   4.634168   3.198912
    26  N    5.405582   6.084567   5.542901   4.466413   3.163239
    27  O    6.539867   7.157459   6.418021   5.215602   3.993694
    28  O    4.636079   5.732045   5.007247   4.074058   2.982010
    29  C    4.364218   4.465304   2.271824   1.426431   2.505316
    30  H    6.141600   6.485443   4.180443   4.338586   5.671348
    31  H    6.482468   6.192273   4.178940   4.328047   5.653726
    32  H    6.651316   6.727866   4.435830   4.096714   5.221409
    33  H    5.032846   5.010202   3.409226   4.359777   5.777521
    34  H    5.574531   5.519977   5.048167   6.344224   7.576006
    35  H    5.212975   5.167913   5.777495   7.132530   8.013563
    36  H    3.020656   3.012473   4.315494   5.500089   5.998600
    37  H    4.312047   4.556847   3.402171   2.104048   1.085847
    38  H    2.665748   2.089044   2.941318   2.776832   2.104158
    39  H    4.636160   3.723500   5.176667   4.898435   3.905423
    40  H    6.837540   6.132391   7.492636   7.016937   5.799228
    41  H    8.705036   8.392751   9.651410   9.096999   7.767601
    42  H   10.032486   9.630367  10.689376   9.970412   8.592090
    43  H    8.923579   8.225545   9.450995   8.824878   7.528424
    44  H    9.001197   9.283971   9.747059   8.866821   7.434103
    45  H    9.280453   9.316360   9.578524   8.548342   7.121664
    46  H   10.198723  10.140221  10.747505   9.840897   8.405364
    47  H    7.319911   7.631834   7.668062   6.643544   5.220666
    48  H    5.238409   5.361879   3.304002   2.222116   2.812855
                   16         17         18         19         20
    16  C    0.000000
    17  C    1.454527   0.000000
    18  C    2.446812   1.412886   0.000000
    19  C    3.748065   2.465737   1.383244   0.000000
    20  C    4.343801   2.899612   2.439139   1.418504   0.000000
    21  N    5.711886   4.270151   3.699897   2.441846   1.371136
    22  C    6.539959   5.154755   4.235106   2.852662   2.445437
    23  C    6.592661   5.153506   4.884538   3.764437   2.449486
    24  C    3.847408   2.473132   2.767296   2.411801   1.416980
    25  C    2.588007   1.415129   2.370599   2.758808   2.435322
    26  N    3.112581   2.518784   3.746463   4.218351   3.725338
    27  O    4.151556   3.534394   4.665687   4.929877   4.167055
    28  O    3.075309   2.912617   4.219342   4.909314   4.621698
    29  C    3.781846   5.011333   6.121244   7.343621   7.700124
    30  H    6.853574   8.185995   9.257529  10.543708  10.955647
    31  H    6.758888   8.089800   9.002641  10.272591  10.790333
    32  H    6.506179   7.701747   8.799866   9.988342  10.279771
    33  H    6.563641   8.016687   8.795473  10.169419  10.897200
    34  H    7.955425   9.353128   9.856115  11.221181  12.160403
    35  H    7.945483   9.147087   9.359535  10.624443  11.701455
    36  H    5.626721   6.668503   6.786606   8.007494   9.085048
    37  H    2.115666   2.786447   4.091781   5.121921   5.228734
    38  H    1.084022   2.134334   2.580671   3.962983   4.843443
    39  H    2.605653   2.145926   1.085897   2.127307   3.411342
    40  H    4.569237   3.424620   2.125093   1.082162   2.176266
    41  H    6.592874   5.247266   4.256897   2.955223   2.805102
    42  H    7.560725   6.155201   5.298633   3.916858   3.334955
    43  H    6.430876   5.143081   4.063228   2.740454   2.751552
    44  H    6.658690   5.242106   5.096807   4.092512   2.807539
    45  H    6.521732   5.146165   5.103646   4.148429   2.760907
    46  H    7.600025   6.154718   5.753431   4.523312   3.337693
    47  H    4.706460   3.426635   3.845900   3.407870   2.181159
    48  H    4.149450   5.165256   6.346652   7.452284   7.632475
                   21         22         23         24         25
    21  N    0.000000
    22  C    1.461387   0.000000
    23  C    1.461569   2.499377   0.000000
    24  C    2.430236   3.753378   2.839956   0.000000
    25  C    3.691673   4.875891   4.224652   1.386071   0.000000
    26  N    4.824877   6.127547   5.002136   2.397999   1.469702
    27  O    5.043114   6.456009   4.938377   2.766886   2.322934
    28  O    5.776138   6.992404   5.986604   3.400060   2.323882
    29  C    9.005638  10.016581   9.642504   6.856643   5.540201
    30  H   12.276665  13.272557  12.882034  10.078568   8.734040
    31  H   12.085049  12.992318  12.809523  10.062094   8.769629
    32  H   11.536376  12.593152  12.082236   9.372925   8.111334
    33  H   12.258150  13.015519  13.104249  10.291357   8.931993
    34  H   13.504705  14.039406  14.484392  11.765489  10.456257
    35  H   12.971200  13.283330  14.038751  11.532857  10.354139
    36  H   10.328432  10.622000  11.399879   8.988696   7.892298
    37  H    6.504759   7.623642   7.049842   4.268448   2.978525
    38  H    6.186496   6.811493   7.210108   4.603400   3.465242
    39  H    4.565503   4.848633   5.844674   3.853066   3.360723
    40  H    2.705579   2.521898   4.145364   3.405568   3.840110
    41  H    2.136626   1.098377   3.085406   4.082848   5.086202
    42  H    2.084423   1.089436   2.547149   4.511569   5.744825
    43  H    2.115243   1.093506   3.348421   4.136843   5.095798
    44  H    2.136464   3.087136   1.098382   2.937862   4.236384
    45  H    2.116404   3.347603   1.093648   2.736463   4.063403
    46  H    2.084646   2.545832   1.089453   3.904959   5.289637
    47  H    2.699874   4.136641   2.511100   1.080578   2.122376
    48  H    8.875117   9.979543   9.392301   6.688482   5.450760
                   26         27         28         29         30
    26  N    0.000000
    27  O    1.234677   0.000000
    28  O    1.232675   2.173052   0.000000
    29  C    5.131393   5.611566   4.785731   0.000000
    30  H    8.151243   8.563350   7.558722   3.299801   0.000000
    31  H    8.419868   8.824353   8.038854   3.292942   1.762238
    32  H    7.521955   7.739202   7.164915   2.730864   1.772074
    33  H    8.710591   9.435412   8.063895   4.091985   2.704431
    34  H   10.440669  11.367570   9.692672   6.563601   5.462487
    35  H   10.579138  11.677236   9.822331   7.838196   7.647654
    36  H    8.270472   9.436086   7.595862   6.581484   7.521118
    37  H    2.609326   3.179152   2.619563   2.618795   5.834853
    38  H    4.125602   5.208700   3.982655   4.159317   6.981609
    39  H    4.642645   5.618080   4.956244   6.169803   9.160514
    40  H    5.298440   5.997945   5.955878   8.181051  11.337269
    41  H    6.337300   6.819532   7.047496  10.232225  13.425041
    42  H    6.902342   7.089934   7.818109  10.958072  14.232765
    43  H    6.452593   6.822719   7.334074   9.856383  13.103905
    44  H    4.842205   4.842056   5.678327   9.737852  12.904379
    45  H    4.648755   4.344364   5.738658   9.243892  12.468550
    46  H    6.084533   5.967573   7.074136  10.671367  13.926620
    47  H    2.529941   2.469699   3.581291   7.380579  10.544811
    48  H    4.898149   5.146102   4.705651   1.081932   3.729798
                   31         32         33         34         35
    31  H    0.000000
    32  H    1.771953   0.000000
    33  H    2.774707   3.990324   0.000000
    34  H    5.559109   6.861460   2.872470   0.000000
    35  H    7.751516   8.891040   5.095698   2.719172   0.000000
    36  H    7.602279   8.387245   5.384357   4.338493   2.712822
    37  H    5.877465   5.133097   6.397482   8.424825   9.017611
    38  H    6.803963   6.825937   6.261504   7.324194   7.090472
    39  H    8.803930   8.817182   8.401532   9.241357   8.615023
    40  H   10.976857  10.814322  10.779253  11.647569  10.875185
    41  H   13.219355  12.882457  13.013355  13.841408  12.896621
    42  H   13.947751  13.492232  14.055944  15.122217  14.369712
    43  H   12.686328  12.397232  12.746049  13.744933  13.011062
    44  H   12.975444  12.209340  13.127347  14.435269  13.918110
    45  H   12.389264  11.557933  12.896178  14.471598  14.231292
    46  H   13.805768  13.092216  14.126674  15.474205  14.965654
    47  H   10.619984   9.775546  10.975537  12.560273  12.407052
    48  H    3.716883   2.692042   5.014387   7.593988   8.919106
                   36         37         38         39         40
    36  H    0.000000
    37  H    7.053182   0.000000
    38  H    4.706835   3.064676   0.000000
    39  H    6.065996   4.522094   2.284707   0.000000
    40  H    8.259962   6.089704   4.584746   2.418874   0.000000
    41  H   10.207694   7.880042   6.753282   4.772021   2.506113
    42  H   11.705260   8.520632   7.875735   5.927724   3.586516
    43  H   10.403318   7.599909   6.609694   4.507464   2.148756
    44  H   11.266617   7.129275   7.279966   6.076222   4.547503
    45  H   11.654017   6.657961   7.260906   6.118801   4.689379
    46  H   12.309204   8.092195   8.171455   6.646441   4.695062
    47  H    9.888153   4.762131   5.545463   4.931784   4.327376
    48  H    7.608981   2.487975   4.737149   6.546909   8.345758
                   41         42         43         44         45
    41  H    0.000000
    42  H    1.775946   0.000000
    43  H    1.777370   1.763087   0.000000
    44  H    3.328285   3.197970   4.061724   0.000000
    45  H    4.060930   3.404443   4.006314   1.778060   0.000000
    46  H    3.191714   2.119630   3.407346   1.775026   1.762985
    47  H    4.530026   4.687361   4.686854   2.473200   2.160635
    48  H   10.291002  10.859401   9.851796   9.522515   8.882741
                   46         47         48
    46  H    0.000000
    47  H    3.578757   0.000000
    48  H   10.407776   7.090546   0.000000
 Stoichiometry    C20H19BF2N4O2
 Framework group  C1[X(C20H19BF2N4O2)]
 Deg. of freedom   138
 Full point group                 C1      NOp   1
 Largest Abelian subgroup         C1      NOp   1
 Largest concise Abelian subgroup C1      NOp   1
                         Standard orientation:                         
 ---------------------------------------------------------------------
 Center     Atomic      Atomic             Coordinates (Angstroms)
 Number     Number       Type             X           Y           Z
 ---------------------------------------------------------------------
      1          6           0        4.380574    3.557749   -1.137681
      2          6           0        3.382512    2.496611   -0.801036
      3          6           0        3.679407    1.131962   -0.486013
      4          6           0        4.914927    0.521907   -0.368673
      5          6           0        5.039427   -0.813607    0.027688
      6          6           0        6.169562   -1.637489    0.222004
      7          6           0        5.697726   -2.884777    0.636186
      8          6           0        4.297658   -2.795386    0.685558
      9          7           0        3.899955   -1.555271    0.322474
     10          5           0        2.434495   -1.051856    0.219350
     11          9           0        1.799492   -1.162622    1.457635
     12          9           0        1.757941   -1.844142   -0.724757
     13          7           0        2.480892    0.443042   -0.242026
     14          6           0        1.460883    1.341105   -0.385252
     15          6           0        0.041923    1.140163   -0.243821
     16          6           0       -0.646436   -0.031036   -0.226580
     17          6           0       -2.087085   -0.210612   -0.137527
     18          6           0       -2.628096   -1.379229   -0.718808
     19          6           0       -3.984904   -1.624186   -0.830313
     20          6           0       -4.938881   -0.681948   -0.367421
     21          7           0       -6.288026   -0.876211   -0.516026
     22          6           0       -6.780009   -2.180792   -0.953832
     23          6           0       -7.226339    0.000303    0.182169
     24          6           0       -4.427842    0.475728    0.270119
     25          6           0       -3.060770    0.675675    0.381147
     26          7           0       -2.686816    1.841382    1.194357
     27          8           0       -3.313762    2.892086    1.028866
     28          8           0       -1.795636    1.706971    2.035321
     29          6           0        2.011304    2.613965   -0.719273
     30          1           0        5.103216    3.697641   -0.326321
     31          1           0        4.951506    3.296586   -2.035596
     32          1           0        3.880970    4.512392   -1.317554
     33          1           0        5.809792    1.099024   -0.575094
     34          1           0        7.196195   -1.332288    0.071199
     35          1           0        6.280909   -3.762058    0.878891
     36          1           0        3.577354   -3.553661    0.961148
     37          1           0       -0.501635    2.079616   -0.211634
     38          1           0       -0.103142   -0.953338   -0.397735
     39          1           0       -1.934741   -2.111919   -1.120798
     40          1           0       -4.307655   -2.551245   -1.285799
     41          1           0       -6.543422   -2.979159   -0.237544
     42          1           0       -7.862202   -2.126539   -1.066906
     43          1           0       -6.356817   -2.452543   -1.924819
     44          1           0       -7.133666   -0.073327    1.274155
     45          1           0       -7.077793    1.044360   -0.107565
     46          1           0       -8.241279   -0.280145   -0.097390
     47          1           0       -5.088493    1.202477    0.720702
     48          1           0        1.421437    3.504591   -0.890795
 ---------------------------------------------------------------------
 Rotational constants (GHZ):           0.3405311           0.0764302           0.0666564
 Leave Link  202 at Thu Nov  6 05:31:17 2025, MaxMem= 30870077440 cpu:               0.3 elap:               0.0
 (Enter /public/software/gauss/g16/l301.exe)
 Standard basis: def2TZVPP (5D, 7F)
 Ernie: Thresh=  0.10000D-02 Tol=  0.10000D-05 Strict=F.
 There are  1329 symmetry adapted cartesian basis functions of A   symmetry.
 There are  1165 symmetry adapted basis functions of A   symmetry.
  1165 basis functions,  1802 primitive gaussians,  1329 cartesian basis functions
   103 alpha electrons      103 beta electrons
       nuclear repulsion energy      2633.3330277072 Hartrees.
 IExCor= 4336 DFT=T Ex+Corr=M062X ExCW=0 ScaHFX=  0.540000
 ScaDFX=  1.000000  1.000000  1.000000  1.000000 ScalE2=  1.000000  1.000000
 IRadAn=      5 IRanWt=     -1 IRanGd=            0 ICorTp=0 IEmpDi=131
 NAtoms=   48 NActive=   48 NUniq=   48 SFac= 1.00D+00 NAtFMM=   60 NAOKFM=F Big=F
 Integral buffers will be    131072 words long.
 Raffenetti 2 integral format.
 Two-electron integral symmetry is turned on.
 R6Disp:  Grimme-D3 Dispersion energy=       -0.0031666820 Hartrees.
 Nuclear repulsion after empirical dispersion term =     2633.3298610252 Hartrees.
 ------------------------------------------------------------------------------
 Polarizable Continuum Model (PCM)
 =================================
 Model                : PCM.
 Atomic radii         : UFF (Universal Force Field).
 Polarization charges : Total charges.
 Charge compensation  : None.
 Solution method      : On-the-fly selection.
 Cavity type          : Scaled VdW (van der Waals Surface) (Alpha=1.100).
 Cavity algorithm     : GePol (No added spheres)
                        Default sphere list used, NSphG=   48.
                        Lebedev-Laikov grids with approx.  5.0 points / Ang**2.
                        Smoothing algorithm: York/Karplus (Gamma=1.0000).
                        Polarization charges: spherical gaussians, with
                                              point-specific exponents (IZeta= 3).
                        Self-potential: point-specific (ISelfS= 7).
                        Self-field    : sphere-specific E.n sum rule (ISelfD= 2).
 Solvent              : Water, Eps=  78.355300 Eps(inf)=   1.777849
 ------------------------------------------------------------------------------
 GePol: Number of generator spheres                  =      48
 GePol: Total number of spheres                      =      48
 GePol: Number of exposed spheres                    =      48 (100.00%)
 GePol: Number of points                             =    3597
 GePol: Average weight of points                     =       0.13
 GePol: Minimum weight of points                     =   0.22D-09
 GePol: Maximum weight of points                     =    0.20577
 GePol: Number of points with low weight             =     216
 GePol: Fraction of low-weight points (<1% of avg)   =       6.01%
 GePol: Cavity surface area                          =    460.270 Ang**2
 GePol: Cavity volume                                =    513.857 Ang**3
 Leave Link  301 at Thu Nov  6 05:31:17 2025, MaxMem= 30870077440 cpu:               3.4 elap:               0.1
 (Enter /public/software/gauss/g16/l302.exe)
 NPDir=0 NMtPBC=     1 NCelOv=     1 NCel=       1 NClECP=     1 NCelD=      1
         NCelK=      1 NCelE2=     1 NClLst=     1 CellRange=     0.0.
 One-electron integrals computed using PRISM.
 One-electron integral symmetry used in STVInt
   1 Symmetry operations used in ECPInt.
 ECPInt:  NShTT=   93961 NPrTT=  268973 LenC2=   68940 LenP2D=  138709.
 LDataN:  DoStor=T MaxTD1= 6 Len=  172
 NBasis=  1165 RedAO= T EigKep=  6.17D-06  NBF=  1165
 NBsUse=  1165 1.00D-06 EigRej= -1.00D+00 NBFU=  1165
 Precomputing XC quadrature grid using
 IXCGrd= 4 IRadAn=           5 IRanWt=          -1 IRanGd=           0 AccXCQ= 0.00D+00.
 Generated NRdTot=       0 NPtTot=           0 NUsed=           0 NTot=          32
 NSgBfM=  1273  1272  1272  1272  1273 MxSgAt=    48 MxSgA2=    48.
 Leave Link  302 at Thu Nov  6 05:31:20 2025, MaxMem= 30870077440 cpu:             197.5 elap:               3.1
 (Enter /public/software/gauss/g16/l303.exe)
 DipDrv:  MaxL=1.
 Leave Link  303 at Thu Nov  6 05:31:20 2025, MaxMem= 30870077440 cpu:              12.8 elap:               0.2
 (Enter /public/software/gauss/g16/l401.exe)
 ExpMin= 6.06D-02 ExpMax= 3.55D+04 ExpMxC= 1.21D+03 IAcc=3 IRadAn=         5 AccDes= 0.00D+00
 Harris functional with IExCor= 1009 and IRadAn=       5 diagonalized for initial guess.
 HarFok:  IExCor= 1009 AccDes= 0.00D+00 IRadAn=         5 IDoV= 1 UseB2=F ITyADJ=14
 ICtDFT=  3500011 ScaDFX=  1.000000  1.000000  1.000000  1.000000
 FoFCou: FMM=F IPFlag=           0 FMFlag=      100000 FMFlg1=           0
         NFxFlg=           0 DoJE=T BraDBF=F KetDBF=T FulRan=T
         wScrn=  0.000000 ICntrl=       500 IOpCl=  0 I1Cent=   200000004 NGrid=           0
         NMat0=    1 NMatS0=      1 NMatT0=    0 NMatD0=    1 NMtDS0=    0 NMtDT0=    0
 Petite list used in FoFCou.
 Harris En= -1366.92221230476    
 JPrj=0 DoOrth=F DoCkMO=F.
 Leave Link  401 at Thu Nov  6 05:31:25 2025, MaxMem= 30870077440 cpu:             286.6 elap:               4.5
 (Enter /public/software/gauss/g16/l502.exe)
 Integral symmetry usage will be decided dynamically.
 Closed shell SCF:
 Using DIIS extrapolation, IDIIS=  1040.
 NGot= 30870077440 LenX= 30866448670 LenY= 30864681100
 Requested convergence on RMS density matrix=1.00D-08 within 128 cycles.
 Requested convergence on MAX density matrix=1.00D-06.
 Requested convergence on             energy=1.00D-06.
 No special actions if energy rises.
 Fock matrices will be formed incrementally for  20 cycles.

 Cycle   1  Pass 1  IDiag  1:
 FoFJK:  IHMeth= 1 ICntrl=       0 DoSepK=F KAlg= 0 I1Cent=           0 FoldK=F
 IRaf= 640000000 NMat=       1 IRICut=       1 DoRegI=T DoRafI=F ISym2E= 0 IDoP0=0 IntGTp=1.
 FoFCou: FMM=F IPFlag=           0 FMFlag=      100000 FMFlg1=           0
         NFxFlg=           0 DoJE=F BraDBF=F KetDBF=F FulRan=T
         wScrn=  0.000000 ICntrl=         0 IOpCl=  0 I1Cent=           0 NGrid=           0
         NMat0=    1 NMatS0=      1 NMatT0=    0 NMatD0=    1 NMtDS0=    0 NMtDT0=    0
 Symmetry not used in FoFCou.
 Inv3:  Mode=1 IEnd=    38815227.
 Iteration    1 A*A^-1 deviation from unit magnitude is 1.01D-14 for   1214.
 Iteration    1 A*A^-1 deviation from orthogonality  is 6.79D-15 for   3584   1444.
 Iteration    1 A^-1*A deviation from unit magnitude is 1.04D-14 for    480.
 Iteration    1 A^-1*A deviation from orthogonality  is 5.95D-15 for   2693   2642.
 E= -1366.95317224539    
 DIIS: error= 2.00D-02 at cycle   1 NSaved=   1.
 NSaved= 1 IEnMin= 1 EnMin= -1366.95317224539     IErMin= 1 ErrMin= 2.00D-02
 ErrMax= 2.00D-02  0.00D+00 EMaxC= 1.00D-01 BMatC= 9.40D-01 BMatP= 9.40D-01
 IDIUse=3 WtCom= 8.00D-01 WtEn= 2.00D-01
 Coeff-Com:  0.100D+01
 Coeff-En:   0.100D+01
 Coeff:      0.100D+01
 Gap=     0.150 Goal=   None    Shift=    0.000
 GapD=    0.150 DampG=1.000 DampE=0.500 DampFc=0.5000 IDamp=-1.
 Damping current iteration by 5.00D-01
 RMSDP=1.75D-03 MaxDP=2.58D-01              OVMax= 1.82D-01

 Cycle   2  Pass 1  IDiag  1:
 RMSU=  8.75D-04    CP:  9.90D-01
 E= -1367.28027910155     Delta-E=       -0.327106856155 Rises=F Damp=T
 DIIS: error= 4.66D-03 at cycle   2 NSaved=   2.
 NSaved= 2 IEnMin= 2 EnMin= -1367.28027910155     IErMin= 2 ErrMin= 4.66D-03
 ErrMax= 4.66D-03  0.00D+00 EMaxC= 1.00D-01 BMatC= 9.65D-02 BMatP= 9.40D-01
 IDIUse=3 WtCom= 9.53D-01 WtEn= 4.66D-02
 Coeff-Com: -0.383D-01 0.104D+01
 Coeff-En:   0.000D+00 0.100D+01
 Coeff:     -0.365D-01 0.104D+01
 Gap=     0.183 Goal=   None    Shift=    0.000
 RMSDP=5.85D-04 MaxDP=4.22D-02 DE=-3.27D-01 OVMax= 1.25D-01

 Cycle   3  Pass 1  IDiag  1:
 RMSU=  5.33D-04    CP:  9.78D-01  1.27D+00
 E= -1367.59870819823     Delta-E=       -0.318429096683 Rises=F Damp=F
 DIIS: error= 7.04D-03 at cycle   3 NSaved=   3.
 NSaved= 3 IEnMin= 3 EnMin= -1367.59870819823     IErMin= 2 ErrMin= 4.66D-03
 ErrMax= 7.04D-03  0.00D+00 EMaxC= 1.00D-01 BMatC= 5.38D-02 BMatP= 9.65D-02
 IDIUse=3 WtCom= 9.30D-01 WtEn= 7.04D-02
 Coeff-Com: -0.106D+00 0.470D+00 0.636D+00
 Coeff-En:   0.000D+00 0.000D+00 0.100D+01
 Coeff:     -0.988D-01 0.437D+00 0.662D+00
 Gap=     0.141 Goal=   None    Shift=    0.000
 RMSDP=2.29D-04 MaxDP=2.24D-02 DE=-3.18D-01 OVMax= 5.11D-02

 Cycle   4  Pass 1  IDiag  1:
 RMSU=  2.13D-04    CP:  9.80D-01  1.34D+00  8.96D-01
 E= -1367.63298427964     Delta-E=       -0.034276081409 Rises=F Damp=F
 DIIS: error= 2.33D-03 at cycle   4 NSaved=   4.
 NSaved= 4 IEnMin= 4 EnMin= -1367.63298427964     IErMin= 4 ErrMin= 2.33D-03
 ErrMax= 2.33D-03  0.00D+00 EMaxC= 1.00D-01 BMatC= 7.53D-03 BMatP= 5.38D-02
 IDIUse=3 WtCom= 9.77D-01 WtEn= 2.33D-02
 Coeff-Com: -0.325D-01 0.853D-01 0.317D+00 0.630D+00
 Coeff-En:   0.000D+00 0.000D+00 0.865D-01 0.914D+00
 Coeff:     -0.318D-01 0.833D-01 0.312D+00 0.636D+00
 Gap=     0.143 Goal=   None    Shift=    0.000
 RMSDP=7.00D-05 MaxDP=5.46D-03 DE=-3.43D-02 OVMax= 1.27D-02

 Cycle   5  Pass 1  IDiag  1:
 RMSU=  4.41D-05    CP:  9.79D-01  1.33D+00  9.28D-01  7.60D-01
 E= -1367.63855426542     Delta-E=       -0.005569985783 Rises=F Damp=F
 DIIS: error= 3.33D-04 at cycle   5 NSaved=   5.
 NSaved= 5 IEnMin= 5 EnMin= -1367.63855426542     IErMin= 5 ErrMin= 3.33D-04
 ErrMax= 3.33D-04  0.00D+00 EMaxC= 1.00D-01 BMatC= 2.44D-04 BMatP= 7.53D-03
 IDIUse=3 WtCom= 9.97D-01 WtEn= 3.33D-03
 Coeff-Com: -0.869D-02 0.155D-01 0.107D+00 0.271D+00 0.616D+00
 Coeff-En:   0.000D+00 0.000D+00 0.000D+00 0.000D+00 0.100D+01
 Coeff:     -0.866D-02 0.154D-01 0.106D+00 0.270D+00 0.617D+00
 Gap=     0.143 Goal=   None    Shift=    0.000
 RMSDP=1.74D-05 MaxDP=1.82D-03 DE=-5.57D-03 OVMax= 4.29D-03

 Cycle   6  Pass 1  IDiag  1:
 RMSU=  1.64D-05    CP:  9.79D-01  1.34D+00  9.26D-01  7.72D-01  9.41D-01
 E= -1367.63874747860     Delta-E=       -0.000193213177 Rises=F Damp=F
 DIIS: error= 8.83D-05 at cycle   6 NSaved=   6.
 NSaved= 6 IEnMin= 6 EnMin= -1367.63874747860     IErMin= 6 ErrMin= 8.83D-05
 ErrMax= 8.83D-05  0.00D+00 EMaxC= 1.00D-01 BMatC= 2.06D-05 BMatP= 2.44D-04
 IDIUse=1 WtCom= 1.00D+00 WtEn= 0.00D+00
 Coeff-Com: -0.115D-03-0.184D-02 0.119D-01 0.438D-01 0.241D+00 0.706D+00
 Coeff:     -0.115D-03-0.184D-02 0.119D-01 0.438D-01 0.241D+00 0.706D+00
 Gap=     0.144 Goal=   None    Shift=    0.000
 RMSDP=7.24D-06 MaxDP=5.35D-04 DE=-1.93D-04 OVMax= 3.18D-03

 Cycle   7  Pass 1  IDiag  1:
 RMSU=  6.30D-06    CP:  9.79D-01  1.34D+00  9.28D-01  7.73D-01  1.02D+00
                    CP:  1.04D+00
 E= -1367.63877520201     Delta-E=       -0.000027723413 Rises=F Damp=F
 DIIS: error= 4.10D-05 at cycle   7 NSaved=   7.
 NSaved= 7 IEnMin= 7 EnMin= -1367.63877520201     IErMin= 7 ErrMin= 4.10D-05
 ErrMax= 4.10D-05  0.00D+00 EMaxC= 1.00D-01 BMatC= 4.48D-06 BMatP= 2.06D-05
 IDIUse=1 WtCom= 1.00D+00 WtEn= 0.00D+00
 Coeff-Com:  0.148D-02-0.371D-02-0.123D-01-0.254D-01 0.387D-02 0.327D+00
 Coeff-Com:  0.709D+00
 Coeff:      0.148D-02-0.371D-02-0.123D-01-0.254D-01 0.387D-02 0.327D+00
 Coeff:      0.709D+00
 Gap=     0.144 Goal=   None    Shift=    0.000
 RMSDP=4.35D-06 MaxDP=4.73D-04 DE=-2.77D-05 OVMax= 1.69D-03

 Cycle   8  Pass 1  IDiag  1:
 RMSU=  2.81D-06    CP:  9.79D-01  1.34D+00  9.28D-01  7.77D-01  1.05D+00
                    CP:  1.19D+00  1.12D+00
 E= -1367.63878282892     Delta-E=       -0.000007626908 Rises=F Damp=F
 DIIS: error= 1.97D-05 at cycle   8 NSaved=   8.
 NSaved= 8 IEnMin= 8 EnMin= -1367.63878282892     IErMin= 8 ErrMin= 1.97D-05
 ErrMax= 1.97D-05  0.00D+00 EMaxC= 1.00D-01 BMatC= 6.23D-07 BMatP= 4.48D-06
 IDIUse=1 WtCom= 1.00D+00 WtEn= 0.00D+00
 Coeff-Com:  0.691D-03-0.134D-02-0.710D-02-0.184D-01-0.421D-01 0.278D-01
 Coeff-Com:  0.282D+00 0.758D+00
 Coeff:      0.691D-03-0.134D-02-0.710D-02-0.184D-01-0.421D-01 0.278D-01
 Coeff:      0.282D+00 0.758D+00
 Gap=     0.144 Goal=   None    Shift=    0.000
 RMSDP=2.26D-06 MaxDP=1.80D-04 DE=-7.63D-06 OVMax= 1.05D-03

 Cycle   9  Pass 1  IDiag  1:
 RMSU=  1.24D-06    CP:  9.79D-01  1.34D+00  9.28D-01  7.77D-01  1.07D+00
                    CP:  1.25D+00  1.29D+00  1.23D+00
 E= -1367.63878447518     Delta-E=       -0.000001646257 Rises=F Damp=F
 DIIS: error= 1.16D-05 at cycle   9 NSaved=   9.
 NSaved= 9 IEnMin= 9 EnMin= -1367.63878447518     IErMin= 9 ErrMin= 1.16D-05
 ErrMax= 1.16D-05  0.00D+00 EMaxC= 1.00D-01 BMatC= 1.25D-07 BMatP= 6.23D-07
 IDIUse=1 WtCom= 1.00D+00 WtEn= 0.00D+00
 Coeff-Com:  0.302D-04 0.711D-04-0.517D-03-0.259D-02-0.169D-01-0.342D-01
 Coeff-Com: -0.257D-01 0.268D+00 0.812D+00
 Coeff:      0.302D-04 0.711D-04-0.517D-03-0.259D-02-0.169D-01-0.342D-01
 Coeff:     -0.257D-01 0.268D+00 0.812D+00
 Gap=     0.144 Goal=   None    Shift=    0.000
 RMSDP=1.16D-06 MaxDP=1.38D-04 DE=-1.65D-06 OVMax= 6.45D-04

 Cycle  10  Pass 1  IDiag  1:
 RMSU=  5.40D-07    CP:  9.79D-01  1.34D+00  9.28D-01  7.76D-01  1.08D+00
                    CP:  1.28D+00  1.37D+00  1.43D+00  1.26D+00
 E= -1367.63878484911     Delta-E=       -0.000000373929 Rises=F Damp=F
 DIIS: error= 5.40D-06 at cycle  10 NSaved=  10.
 NSaved=10 IEnMin=10 EnMin= -1367.63878484911     IErMin=10 ErrMin= 5.40D-06
 ErrMax= 5.40D-06  0.00D+00 EMaxC= 1.00D-01 BMatC= 5.34D-08 BMatP= 1.25D-07
 IDIUse=1 WtCom= 1.00D+00 WtEn= 0.00D+00
 Coeff-Com: -0.132D-03 0.328D-03 0.132D-02 0.278D-02-0.815D-03-0.234D-01
 Coeff-Com: -0.840D-01-0.336D-01 0.469D+00 0.668D+00
 Coeff:     -0.132D-03 0.328D-03 0.132D-02 0.278D-02-0.815D-03-0.234D-01
 Coeff:     -0.840D-01-0.336D-01 0.469D+00 0.668D+00
 Gap=     0.144 Goal=   None    Shift=    0.000
 RMSDP=6.41D-07 MaxDP=7.04D-05 DE=-3.74D-07 OVMax= 3.30D-04

 Cycle  11  Pass 1  IDiag  1:
 RMSU=  2.95D-07    CP:  9.79D-01  1.34D+00  9.28D-01  7.75D-01  1.08D+00
                    CP:  1.29D+00  1.41D+00  1.53D+00  1.52D+00  1.08D+00
 E= -1367.63878495616     Delta-E=       -0.000000107048 Rises=F Damp=F
 DIIS: error= 2.61D-06 at cycle  11 NSaved=  11.
 NSaved=11 IEnMin=11 EnMin= -1367.63878495616     IErMin=11 ErrMin= 2.61D-06
 ErrMax= 2.61D-06  0.00D+00 EMaxC= 1.00D-01 BMatC= 1.03D-08 BMatP= 5.34D-08
 IDIUse=1 WtCom= 1.00D+00 WtEn= 0.00D+00
 Coeff-Com: -0.686D-04 0.140D-03 0.796D-03 0.211D-02 0.331D-02-0.196D-02
 Coeff-Com: -0.381D-01-0.839D-01 0.647D-01 0.351D+00 0.702D+00
 Coeff:     -0.686D-04 0.140D-03 0.796D-03 0.211D-02 0.331D-02-0.196D-02
 Coeff:     -0.381D-01-0.839D-01 0.647D-01 0.351D+00 0.702D+00
 Gap=     0.144 Goal=   None    Shift=    0.000
 RMSDP=2.96D-07 MaxDP=3.54D-05 DE=-1.07D-07 OVMax= 1.63D-04

 Cycle  12  Pass 1  IDiag  1:
 RMSU=  1.31D-07    CP:  9.79D-01  1.34D+00  9.28D-01  7.75D-01  1.08D+00
                    CP:  1.30D+00  1.42D+00  1.57D+00  1.65D+00  1.30D+00
                    CP:  1.08D+00
 E= -1367.63878498020     Delta-E=       -0.000000024048 Rises=F Damp=F
 DIIS: error= 1.41D-06 at cycle  12 NSaved=  12.
 NSaved=12 IEnMin=12 EnMin= -1367.63878498020     IErMin=12 ErrMin= 1.41D-06
 ErrMax= 1.41D-06  0.00D+00 EMaxC= 1.00D-01 BMatC= 1.42D-09 BMatP= 1.03D-08
 IDIUse=1 WtCom= 1.00D+00 WtEn= 0.00D+00
 Coeff-Com:  0.626D-05-0.238D-04-0.146D-05 0.163D-03 0.107D-02 0.498D-02
 Coeff-Com:  0.389D-02-0.238D-01-0.701D-01-0.261D-01 0.237D+00 0.873D+00
 Coeff:      0.626D-05-0.238D-04-0.146D-05 0.163D-03 0.107D-02 0.498D-02
 Coeff:      0.389D-02-0.238D-01-0.701D-01-0.261D-01 0.237D+00 0.873D+00
 Gap=     0.144 Goal=   None    Shift=    0.000
 RMSDP=1.44D-07 MaxDP=1.36D-05 DE=-2.40D-08 OVMax= 9.36D-05

 Cycle  13  Pass 1  IDiag  1:
 RMSU=  5.69D-08    CP:  9.79D-01  1.34D+00  9.28D-01  7.75D-01  1.08D+00
                    CP:  1.30D+00  1.43D+00  1.59D+00  1.70D+00  1.39D+00
                    CP:  1.30D+00  1.22D+00
 E= -1367.63878498609     Delta-E=       -0.000000005890 Rises=F Damp=F
 DIIS: error= 4.95D-07 at cycle  13 NSaved=  13.
 NSaved=13 IEnMin=13 EnMin= -1367.63878498609     IErMin=13 ErrMin= 4.95D-07
 ErrMax= 4.95D-07  0.00D+00 EMaxC= 1.00D-01 BMatC= 4.23D-10 BMatP= 1.42D-09
 IDIUse=1 WtCom= 1.00D+00 WtEn= 0.00D+00
 Coeff-Com:  0.182D-04-0.418D-04-0.179D-03-0.400D-03-0.366D-03 0.282D-02
 Coeff-Com:  0.101D-01 0.760D-02-0.458D-01-0.970D-01-0.637D-01 0.398D+00
 Coeff-Com:  0.789D+00
 Coeff:      0.182D-04-0.418D-04-0.179D-03-0.400D-03-0.366D-03 0.282D-02
 Coeff:      0.101D-01 0.760D-02-0.458D-01-0.970D-01-0.637D-01 0.398D+00
 Coeff:      0.789D+00
 Gap=     0.144 Goal=   None    Shift=    0.000
 RMSDP=7.34D-08 MaxDP=6.37D-06 DE=-5.89D-09 OVMax= 4.12D-05

 Cycle  14  Pass 1  IDiag  1:
 RMSU=  2.49D-08    CP:  9.79D-01  1.34D+00  9.28D-01  7.75D-01  1.08D+00
                    CP:  1.30D+00  1.43D+00  1.59D+00  1.73D+00  1.44D+00
                    CP:  1.38D+00  1.45D+00  1.28D+00
 E= -1367.63878498735     Delta-E=       -0.000000001253 Rises=F Damp=F
 DIIS: error= 2.15D-07 at cycle  14 NSaved=  14.
 NSaved=14 IEnMin=14 EnMin= -1367.63878498735     IErMin=14 ErrMin= 2.15D-07
 ErrMax= 2.15D-07  0.00D+00 EMaxC= 1.00D-01 BMatC= 5.07D-11 BMatP= 4.23D-10
 IDIUse=1 WtCom= 1.00D+00 WtEn= 0.00D+00
 Coeff-Com:  0.521D-05-0.102D-04-0.613D-04-0.172D-03-0.345D-03 0.249D-03
 Coeff-Com:  0.294D-02 0.772D-02-0.295D-05-0.290D-01-0.712D-01-0.189D-01
 Coeff-Com:  0.269D+00 0.840D+00
 Coeff:      0.521D-05-0.102D-04-0.613D-04-0.172D-03-0.345D-03 0.249D-03
 Coeff:      0.294D-02 0.772D-02-0.295D-05-0.290D-01-0.712D-01-0.189D-01
 Coeff:      0.269D+00 0.840D+00
 Gap=     0.144 Goal=   None    Shift=    0.000
 RMSDP=2.22D-08 MaxDP=1.83D-06 DE=-1.25D-09 OVMax= 1.20D-05

 Cycle  15  Pass 1  IDiag  1:
 RMSU=  9.45D-09    CP:  9.79D-01  1.34D+00  9.28D-01  7.75D-01  1.08D+00
                    CP:  1.30D+00  1.43D+00  1.59D+00  1.73D+00  1.45D+00
                    CP:  1.41D+00  1.53D+00  1.48D+00  1.22D+00
 E= -1367.63878498747     Delta-E=       -0.000000000126 Rises=F Damp=F
 DIIS: error= 6.54D-08 at cycle  15 NSaved=  15.
 NSaved=15 IEnMin=15 EnMin= -1367.63878498747     IErMin=15 ErrMin= 6.54D-08
 ErrMax= 6.54D-08  0.00D+00 EMaxC= 1.00D-01 BMatC= 7.89D-12 BMatP= 5.07D-11
 IDIUse=1 WtCom= 1.00D+00 WtEn= 0.00D+00
 Coeff-Com: -0.971D-06 0.266D-05 0.551D-05-0.321D-05-0.730D-04-0.388D-03
 Coeff-Com: -0.549D-03 0.118D-02 0.623D-02 0.409D-02-0.155D-01-0.618D-01
 Coeff-Com: -0.426D-01 0.272D+00 0.838D+00
 Coeff:     -0.971D-06 0.266D-05 0.551D-05-0.321D-05-0.730D-04-0.388D-03
 Coeff:     -0.549D-03 0.118D-02 0.623D-02 0.409D-02-0.155D-01-0.618D-01
 Coeff:     -0.426D-01 0.272D+00 0.838D+00
 Gap=     0.144 Goal=   None    Shift=    0.000
 RMSDP=9.83D-09 MaxDP=7.67D-07 DE=-1.26D-10 OVMax= 5.38D-06

 Error on total polarization charges =  0.01948
 SCF Done:  E(RM062X) =  -1367.63878499     A.U. after   15 cycles
            NFock= 15  Conv=0.98D-08     -V/T= 2.0053
 KE= 1.360479421278D+03 PE=-8.462229499024D+03 EE= 3.100781431733D+03
 Leave Link  502 at Thu Nov  6 05:39:17 2025, MaxMem= 30870077440 cpu:           29826.1 elap:             472.8
 (Enter /public/software/gauss/g16/l601.exe)
 Copying SCF densities to generalized density rwf, IOpCl= 0 IROHF=0.

 **********************************************************************

            Population analysis using the SCF density.

 **********************************************************************

 Orbital symmetries:
       Occupied  (A) (A) (A) (A) (A) (A) (A) (A) (A) (A) (A) (A)
                 (A) (A) (A) (A) (A) (A) (A) (A) (A) (A) (A) (A)
                 (A) (A) (A) (A) (A) (A) (A) (A) (A) (A) (A) (A)
                 (A) (A) (A) (A) (A) (A) (A) (A) (A) (A) (A) (A)
                 (A) (A) (A) (A) (A) (A) (A) (A) (A) (A) (A) (A)
                 (A) (A) (A) (A) (A) (A) (A) (A) (A) (A) (A) (A)
                 (A) (A) (A) (A) (A) (A) (A) (A) (A) (A) (A) (A)
                 (A) (A) (A) (A) (A) (A) (A) (A) (A) (A) (A) (A)
                 (A) (A) (A) (A) (A) (A) (A)
       Virtual   (A) (A) (A) (A) (A) (A) (A) (A) (A) (A) (A) (A)
                 (A) (A) (A) (A) (A) (A) (A) (A) (A) (A) (A) (A)
                 (A) (A) (A) (A) (A) (A) (A) (A) (A) (A) (A) (A)
                 (A) (A) (A) (A) (A) (A) (A) (A) (A) (A) (A) (A)
                 (A) (A) (A) (A) (A) (A) (A) (A) (A) (A) (A) (A)
                 (A) (A) (A) (A) (A) (A) (A) (A) (A) (A) (A) (A)
                 (A) (A) (A) (A) (A) (A) (A) (A) (A) (A) (A) (A)
                 (A) (A) (A) (A) (A) (A) (A) (A) (A) (A) (A) (A)
                 (A) (A) (A) (A) (A) (A) (A) (A) (A) (A) (A) (A)
                 (A) (A) (A) (A) (A) (A) (A) (A) (A) (A) (A) (A)
                 (A) (A) (A) (A) (A) (A) (A) (A) (A) (A) (A) (A)
                 (A) (A) (A) (A) (A) (A) (A) (A) (A) (A) (A) (A)
                 (A) (A) (A) (A) (A) (A) (A) (A) (A) (A) (A) (A)
                 (A) (A) (A) (A) (A) (A) (A) (A) (A) (A) (A) (A)
                 (A) (A) (A) (A) (A) (A) (A) (A) (A) (A) (A) (A)
                 (A) (A) (A) (A) (A) (A) (A) (A) (A) (A) (A) (A)
                 (A) (A) (A) (A) (A) (A) (A) (A) (A) (A) (A) (A)
                 (A) (A) (A) (A) (A) (A) (A) (A) (A) (A) (A) (A)
                 (A) (A) (A) (A) (A) (A) (A) (A) (A) (A) (A) (A)
                 (A) (A) (A) (A) (A) (A) (A) (A) (A) (A) (A) (A)
                 (A) (A) (A) (A) (A) (A) (A) (A) (A) (A) (A) (A)
                 (A) (A) (A) (A) (A) (A) (A) (A) (A) (A) (A) (A)
                 (A) (A) (A) (A) (A) (A) (A) (A) (A) (A) (A) (A)
                 (A) (A) (A) (A) (A) (A) (A) (A) (A) (A) (A) (A)
                 (A) (A) (A) (A) (A) (A) (A) (A) (A) (A) (A) (A)
                 (A) (A) (A) (A) (A) (A) (A) (A) (A) (A) (A) (A)
                 (A) (A) (A) (A) (A) (A) (A) (A) (A) (A) (A) (A)
                 (A) (A) (A) (A) (A) (A) (A) (A) (A) (A) (A) (A)
                 (A) (A) (A) (A) (A) (A) (A) (A) (A) (A) (A) (A)
                 (A) (A) (A) (A) (A) (A) (A) (A) (A) (A) (A) (A)
                 (A) (A) (A) (A) (A) (A) (A) (A) (A) (A) (A) (A)
                 (A) (A) (A) (A) (A) (A) (A) (A) (A) (A) (A) (A)
                 (A) (A) (A) (A) (A) (A) (A) (A) (A) (A) (A) (A)
                 (A) (A) (A) (A) (A) (A) (A) (A) (A) (A) (A) (A)
                 (A) (A) (A) (A) (A) (A) (A) (A) (A) (A) (A) (A)
                 (A) (A) (A) (A) (A) (A) (A) (A) (A) (A) (A) (A)
                 (A) (A) (A) (A) (A) (A) (A) (A) (A) (A) (A) (A)
                 (A) (A) (A) (A) (A) (A) (A) (A) (A) (A) (A) (A)
                 (A) (A) (A) (A) (A) (A) (A) (A) (A) (A) (A) (A)
                 (A) (A) (A) (A) (A) (A) (A) (A) (A) (A) (A) (A)
                 (A) (A) (A) (A) (A) (A) (A) (A) (A) (A) (A) (A)
                 (A) (A) (A) (A) (A) (A) (A) (A) (A) (A) (A) (A)
                 (A) (A) (A) (A) (A) (A) (A) (A) (A) (A) (A) (A)
                 (A) (A) (A) (A) (A) (A) (A) (A) (A) (A) (A) (A)
                 (A) (A) (A) (A) (A) (A) (A) (A) (A) (A) (A) (A)
                 (A) (A) (A) (A) (A) (A) (A) (A) (A) (A) (A) (A)
                 (A) (A) (A) (A) (A) (A) (A) (A) (A) (A) (A) (A)
                 (A) (A) (A) (A) (A) (A) (A) (A) (A) (A) (A) (A)
                 (A) (A) (A) (A) (A) (A) (A) (A) (A) (A) (A) (A)
                 (A) (A) (A) (A) (A) (A) (A) (A) (A) (A) (A) (A)
                 (A) (A) (A) (A) (A) (A) (A) (A) (A) (A) (A) (A)
                 (A) (A) (A) (A) (A) (A) (A) (A) (A) (A) (A) (A)
                 (A) (A) (A) (A) (A) (A) (A) (A) (A) (A) (A) (A)
                 (A) (A) (A) (A) (A) (A) (A) (A) (A) (A) (A) (A)
                 (A) (A) (A) (A) (A) (A) (A) (A) (A) (A) (A) (A)
                 (A) (A) (A) (A) (A) (A) (A) (A) (A) (A) (A) (A)
                 (A) (A) (A) (A) (A) (A) (A) (A) (A) (A) (A) (A)
                 (A) (A) (A) (A) (A) (A) (A) (A) (A) (A) (A) (A)
                 (A) (A) (A) (A) (A) (A) (A) (A) (A) (A) (A) (A)
                 (A) (A) (A) (A) (A) (A) (A) (A) (A) (A) (A) (A)
                 (A) (A) (A) (A) (A) (A) (A) (A) (A) (A) (A) (A)
                 (A) (A) (A) (A) (A) (A) (A) (A) (A) (A) (A) (A)
                 (A) (A) (A) (A) (A) (A) (A) (A) (A) (A) (A) (A)
                 (A) (A) (A) (A) (A) (A) (A) (A) (A) (A) (A) (A)
                 (A) (A) (A) (A) (A) (A) (A) (A) (A) (A) (A) (A)
                 (A) (A) (A) (A) (A) (A) (A) (A) (A) (A) (A) (A)
                 (A) (A) (A) (A) (A) (A) (A) (A) (A) (A) (A) (A)
                 (A) (A) (A) (A) (A) (A) (A) (A) (A) (A) (A) (A)
                 (A) (A) (A) (A) (A) (A) (A) (A) (A) (A) (A) (A)
                 (A) (A) (A) (A) (A) (A) (A) (A) (A) (A) (A) (A)
                 (A) (A) (A) (A) (A) (A) (A) (A) (A) (A) (A) (A)
                 (A) (A) (A) (A) (A) (A) (A) (A) (A) (A) (A) (A)
                 (A) (A) (A) (A) (A) (A) (A) (A) (A) (A) (A) (A)
                 (A) (A) (A) (A) (A) (A) (A) (A) (A) (A) (A) (A)
                 (A) (A) (A) (A) (A) (A) (A) (A) (A) (A) (A) (A)
                 (A) (A) (A) (A) (A) (A) (A) (A) (A) (A) (A) (A)
                 (A) (A) (A) (A) (A) (A) (A) (A) (A) (A) (A) (A)
                 (A) (A) (A) (A) (A) (A) (A) (A) (A) (A) (A) (A)
                 (A) (A) (A) (A) (A) (A) (A) (A) (A) (A) (A) (A)
                 (A) (A) (A) (A) (A) (A) (A) (A) (A) (A) (A) (A)
                 (A) (A) (A) (A) (A) (A) (A) (A) (A) (A) (A) (A)
                 (A) (A) (A) (A) (A) (A) (A) (A) (A) (A) (A) (A)
                 (A) (A) (A) (A) (A) (A) (A) (A) (A) (A) (A) (A)
                 (A) (A) (A) (A) (A) (A) (A) (A) (A) (A) (A) (A)
                 (A) (A) (A) (A) (A) (A) (A) (A) (A) (A) (A) (A)
                 (A) (A) (A) (A) (A) (A) (A) (A) (A) (A) (A) (A)
                 (A) (A) (A) (A) (A) (A) (A) (A) (A) (A) (A) (A)
                 (A) (A) (A) (A) (A) (A) (A) (A) (A) (A) (A) (A)
                 (A) (A) (A) (A) (A) (A)
 The electronic state is 1-A.
 Alpha  occ. eigenvalues --  -25.20724 -25.20696 -19.68223 -19.68194 -15.01400
 Alpha  occ. eigenvalues --  -14.79130 -14.78618 -14.78608 -10.62203 -10.61472
 Alpha  occ. eigenvalues --  -10.61228 -10.59227 -10.59109 -10.59020 -10.58509
 Alpha  occ. eigenvalues --  -10.57910 -10.57507 -10.57245 -10.57199 -10.57184
 Alpha  occ. eigenvalues --  -10.57123 -10.56818 -10.56348 -10.55941 -10.55672
 Alpha  occ. eigenvalues --  -10.54895 -10.54500 -10.54456  -7.13650  -1.37177
 Alpha  occ. eigenvalues --   -1.32667  -1.29445  -1.18720  -1.10801  -1.08904
 Alpha  occ. eigenvalues --   -1.07622  -0.99752  -0.93373  -0.91504  -0.91317
 Alpha  occ. eigenvalues --   -0.90726  -0.88555  -0.86634  -0.83474  -0.82408
 Alpha  occ. eigenvalues --   -0.80416  -0.79654  -0.78059  -0.74545  -0.70958
 Alpha  occ. eigenvalues --   -0.70103  -0.69788  -0.68257  -0.67590  -0.64858
 Alpha  occ. eigenvalues --   -0.64716  -0.63850  -0.62677  -0.62246  -0.61262
 Alpha  occ. eigenvalues --   -0.60315  -0.59485  -0.58619  -0.58156  -0.56828
 Alpha  occ. eigenvalues --   -0.56192  -0.55062  -0.54205  -0.53514  -0.52530
 Alpha  occ. eigenvalues --   -0.52206  -0.52000  -0.51370  -0.51172  -0.50266
 Alpha  occ. eigenvalues --   -0.49012  -0.48917  -0.48248  -0.47781  -0.47685
 Alpha  occ. eigenvalues --   -0.47343  -0.47214  -0.46909  -0.46622  -0.46574
 Alpha  occ. eigenvalues --   -0.45600  -0.45154  -0.44624  -0.44165  -0.43573
 Alpha  occ. eigenvalues --   -0.42812  -0.41805  -0.41346  -0.40576  -0.39723
 Alpha  occ. eigenvalues --   -0.39196  -0.37473  -0.33968  -0.33242  -0.32753
 Alpha  occ. eigenvalues --   -0.31923  -0.27561  -0.24241
 Alpha virt. eigenvalues --   -0.09814  -0.06215  -0.01343   0.00807   0.04548
 Alpha virt. eigenvalues --    0.06230   0.06699   0.06868   0.08130   0.08513
 Alpha virt. eigenvalues --    0.09073   0.09797   0.09934   0.10181   0.10595
 Alpha virt. eigenvalues --    0.10890   0.11251   0.11429   0.11960   0.12164
 Alpha virt. eigenvalues --    0.12794   0.13726   0.13749   0.14176   0.14478
 Alpha virt. eigenvalues --    0.14994   0.15012   0.15256   0.15664   0.16333
 Alpha virt. eigenvalues --    0.16707   0.17129   0.17517   0.17597   0.18142
 Alpha virt. eigenvalues --    0.18724   0.19042   0.19806   0.20190   0.20357
 Alpha virt. eigenvalues --    0.21051   0.21359   0.21711   0.22047   0.22382
 Alpha virt. eigenvalues --    0.22743   0.22928   0.23679   0.24363   0.24458
 Alpha virt. eigenvalues --    0.24793   0.24950   0.25531   0.25988   0.26484
 Alpha virt. eigenvalues --    0.27037   0.27169   0.27734   0.28194   0.29080
 Alpha virt. eigenvalues --    0.29205   0.29614   0.29913   0.30386   0.30803
 Alpha virt. eigenvalues --    0.30899   0.31340   0.31494   0.31829   0.32318
 Alpha virt. eigenvalues --    0.32568   0.33662   0.33908   0.34126   0.34302
 Alpha virt. eigenvalues --    0.34827   0.35177   0.35638   0.35896   0.36088
 Alpha virt. eigenvalues --    0.36559   0.36976   0.37232   0.37734   0.37921
 Alpha virt. eigenvalues --    0.38396   0.38581   0.38810   0.39142   0.39526
 Alpha virt. eigenvalues --    0.39891   0.40011   0.40380   0.40685   0.41046
 Alpha virt. eigenvalues --    0.41427   0.41682   0.42052   0.42210   0.42690
 Alpha virt. eigenvalues --    0.43281   0.43414   0.43969   0.44340   0.44560
 Alpha virt. eigenvalues --    0.44882   0.45597   0.45788   0.45977   0.46156
 Alpha virt. eigenvalues --    0.47085   0.47309   0.47499   0.47718   0.47908
 Alpha virt. eigenvalues --    0.48050   0.48608   0.49158   0.49222   0.49837
 Alpha virt. eigenvalues --    0.49922   0.50322   0.50590   0.50914   0.51180
 Alpha virt. eigenvalues --    0.51499   0.51973   0.52182   0.52427   0.52943
 Alpha virt. eigenvalues --    0.53067   0.53382   0.53882   0.54541   0.55080
 Alpha virt. eigenvalues --    0.55699   0.56078   0.56488   0.56667   0.57247
 Alpha virt. eigenvalues --    0.57552   0.58353   0.58441   0.58804   0.59260
 Alpha virt. eigenvalues --    0.59872   0.60583   0.60853   0.61098   0.61798
 Alpha virt. eigenvalues --    0.62218   0.62841   0.63177   0.63476   0.64100
 Alpha virt. eigenvalues --    0.64547   0.64676   0.65226   0.65332   0.66058
 Alpha virt. eigenvalues --    0.66717   0.66784   0.67218   0.67775   0.68251
 Alpha virt. eigenvalues --    0.68506   0.68733   0.69221   0.69437   0.70173
 Alpha virt. eigenvalues --    0.70453   0.70979   0.71224   0.71975   0.72298
 Alpha virt. eigenvalues --    0.72671   0.72883   0.73424   0.73656   0.74081
 Alpha virt. eigenvalues --    0.75120   0.75664   0.75810   0.76591   0.77153
 Alpha virt. eigenvalues --    0.77473   0.78020   0.78435   0.78697   0.79156
 Alpha virt. eigenvalues --    0.79606   0.80199   0.80731   0.81035   0.81178
 Alpha virt. eigenvalues --    0.81738   0.82664   0.83017   0.83703   0.83989
 Alpha virt. eigenvalues --    0.84435   0.84556   0.84823   0.85133   0.85906
 Alpha virt. eigenvalues --    0.86742   0.87153   0.87357   0.87559   0.88290
 Alpha virt. eigenvalues --    0.89389   0.89925   0.90515   0.91218   0.91683
 Alpha virt. eigenvalues --    0.92256   0.92620   0.93033   0.93358   0.93898
 Alpha virt. eigenvalues --    0.94342   0.94696   0.95204   0.95458   0.95905
 Alpha virt. eigenvalues --    0.96316   0.96837   0.97757   0.98128   0.98361
 Alpha virt. eigenvalues --    0.98862   0.99661   1.00138   1.00150   1.00429
 Alpha virt. eigenvalues --    1.00872   1.01496   1.01634   1.02286   1.02581
 Alpha virt. eigenvalues --    1.03255   1.03948   1.04508   1.04604   1.05511
 Alpha virt. eigenvalues --    1.05947   1.06295   1.07056   1.07128   1.08186
 Alpha virt. eigenvalues --    1.08481   1.09213   1.09305   1.09873   1.10292
 Alpha virt. eigenvalues --    1.10608   1.11596   1.12155   1.12508   1.12643
 Alpha virt. eigenvalues --    1.13502   1.13861   1.14639   1.15005   1.15727
 Alpha virt. eigenvalues --    1.16019   1.16648   1.17086   1.17896   1.18408
 Alpha virt. eigenvalues --    1.18723   1.19810   1.20205   1.20627   1.21099
 Alpha virt. eigenvalues --    1.21759   1.22690   1.23086   1.23261   1.23953
 Alpha virt. eigenvalues --    1.24547   1.25688   1.25834   1.26163   1.26556
 Alpha virt. eigenvalues --    1.27290   1.27765   1.28315   1.29004   1.29241
 Alpha virt. eigenvalues --    1.29426   1.29869   1.30429   1.30948   1.31759
 Alpha virt. eigenvalues --    1.32137   1.32813   1.33282   1.33511   1.33907
 Alpha virt. eigenvalues --    1.34508   1.34922   1.35638   1.35760   1.36313
 Alpha virt. eigenvalues --    1.36628   1.37691   1.39075   1.39676   1.39937
 Alpha virt. eigenvalues --    1.40430   1.40745   1.41381   1.41837   1.42454
 Alpha virt. eigenvalues --    1.42749   1.43256   1.44147   1.44650   1.45294
 Alpha virt. eigenvalues --    1.45485   1.46624   1.47124   1.47680   1.48063
 Alpha virt. eigenvalues --    1.48458   1.48548   1.49076   1.49541   1.50084
 Alpha virt. eigenvalues --    1.50296   1.50498   1.51157   1.51325   1.51677
 Alpha virt. eigenvalues --    1.52397   1.53011   1.53217   1.53672   1.54162
 Alpha virt. eigenvalues --    1.54216   1.54866   1.55436   1.56077   1.56286
 Alpha virt. eigenvalues --    1.56577   1.57115   1.58297   1.58316   1.59169
 Alpha virt. eigenvalues --    1.59583   1.59801   1.60087   1.60255   1.61422
 Alpha virt. eigenvalues --    1.61558   1.62201   1.62715   1.63111   1.63689
 Alpha virt. eigenvalues --    1.64599   1.65485   1.66003   1.66380   1.66977
 Alpha virt. eigenvalues --    1.67597   1.68152   1.69046   1.69433   1.70240
 Alpha virt. eigenvalues --    1.70737   1.71179   1.72400   1.73418   1.74196
 Alpha virt. eigenvalues --    1.74470   1.74918   1.76176   1.76884   1.77215
 Alpha virt. eigenvalues --    1.77977   1.78393   1.78910   1.79177   1.79741
 Alpha virt. eigenvalues --    1.80644   1.80719   1.81662   1.82201   1.82809
 Alpha virt. eigenvalues --    1.83513   1.83623   1.84656   1.84858   1.85738
 Alpha virt. eigenvalues --    1.86281   1.86459   1.87328   1.88662   1.89190
 Alpha virt. eigenvalues --    1.90054   1.90690   1.91505   1.92027   1.92827
 Alpha virt. eigenvalues --    1.93699   1.95343   1.96167   1.96326   1.97332
 Alpha virt. eigenvalues --    1.97926   1.99325   2.00216   2.01277   2.01999
 Alpha virt. eigenvalues --    2.02667   2.03180   2.03597   2.04218   2.05483
 Alpha virt. eigenvalues --    2.05638   2.06374   2.06579   2.07204   2.08122
 Alpha virt. eigenvalues --    2.09064   2.09785   2.10354   2.11268   2.13034
 Alpha virt. eigenvalues --    2.14011   2.14594   2.15475   2.16246   2.16893
 Alpha virt. eigenvalues --    2.17693   2.18377   2.18402   2.19976   2.21156
 Alpha virt. eigenvalues --    2.21583   2.22646   2.23598   2.24640   2.25101
 Alpha virt. eigenvalues --    2.25766   2.26449   2.26974   2.27730   2.28615
 Alpha virt. eigenvalues --    2.29215   2.30281   2.31055   2.32055   2.32791
 Alpha virt. eigenvalues --    2.33668   2.33994   2.35380   2.36745   2.37117
 Alpha virt. eigenvalues --    2.37926   2.39193   2.40053   2.40187   2.41357
 Alpha virt. eigenvalues --    2.42594   2.42861   2.43210   2.44588   2.45188
 Alpha virt. eigenvalues --    2.45986   2.46741   2.47533   2.48496   2.48699
 Alpha virt. eigenvalues --    2.49815   2.51836   2.52135   2.53222   2.55327
 Alpha virt. eigenvalues --    2.56098   2.56990   2.57673   2.58468   2.58644
 Alpha virt. eigenvalues --    2.59270   2.59673   2.60648   2.61303   2.62099
 Alpha virt. eigenvalues --    2.62401   2.62657   2.63070   2.63839   2.64311
 Alpha virt. eigenvalues --    2.64489   2.65403   2.66643   2.66988   2.67993
 Alpha virt. eigenvalues --    2.68195   2.68936   2.69737   2.70601   2.71364
 Alpha virt. eigenvalues --    2.71748   2.72121   2.72359   2.73022   2.73538
 Alpha virt. eigenvalues --    2.74162   2.74773   2.75093   2.75729   2.76548
 Alpha virt. eigenvalues --    2.76693   2.77502   2.77790   2.78420   2.79544
 Alpha virt. eigenvalues --    2.80083   2.80981   2.81061   2.81353   2.82034
 Alpha virt. eigenvalues --    2.82348   2.82876   2.83073   2.83445   2.84114
 Alpha virt. eigenvalues --    2.84339   2.85120   2.85560   2.86047   2.87336
 Alpha virt. eigenvalues --    2.87526   2.88187   2.88951   2.89303   2.89825
 Alpha virt. eigenvalues --    2.90236   2.90566   2.90678   2.91394   2.92159
 Alpha virt. eigenvalues --    2.92399   2.93186   2.93529   2.93866   2.94032
 Alpha virt. eigenvalues --    2.94709   2.95104   2.95366   2.96439   2.96500
 Alpha virt. eigenvalues --    2.96875   2.97462   2.98299   2.98491   2.99135
 Alpha virt. eigenvalues --    2.99292   2.99806   2.99986   3.00616   3.00823
 Alpha virt. eigenvalues --    3.00930   3.01882   3.02081   3.02784   3.02877
 Alpha virt. eigenvalues --    3.03397   3.03716   3.03976   3.04294   3.04542
 Alpha virt. eigenvalues --    3.05027   3.05731   3.06081   3.06288   3.06863
 Alpha virt. eigenvalues --    3.07404   3.07725   3.07977   3.08152   3.08782
 Alpha virt. eigenvalues --    3.09332   3.10018   3.10233   3.11080   3.11207
 Alpha virt. eigenvalues --    3.11411   3.12178   3.12617   3.13596   3.14195
 Alpha virt. eigenvalues --    3.14888   3.15140   3.16108   3.16733   3.16995
 Alpha virt. eigenvalues --    3.17102   3.17519   3.17700   3.18413   3.18855
 Alpha virt. eigenvalues --    3.19480   3.19712   3.20280   3.20888   3.21170
 Alpha virt. eigenvalues --    3.21419   3.21658   3.22289   3.22859   3.23875
 Alpha virt. eigenvalues --    3.24071   3.24674   3.24950   3.25353   3.26053
 Alpha virt. eigenvalues --    3.26189   3.27076   3.27387   3.27831   3.28466
 Alpha virt. eigenvalues --    3.28617   3.28800   3.29741   3.30122   3.30727
 Alpha virt. eigenvalues --    3.31009   3.31220   3.31813   3.32774   3.33122
 Alpha virt. eigenvalues --    3.33484   3.33823   3.34563   3.35203   3.35718
 Alpha virt. eigenvalues --    3.35781   3.36148   3.37234   3.37579   3.38274
 Alpha virt. eigenvalues --    3.38696   3.39416   3.39871   3.40308   3.40647
 Alpha virt. eigenvalues --    3.41375   3.41514   3.42355   3.42932   3.43403
 Alpha virt. eigenvalues --    3.43863   3.44882   3.45212   3.45928   3.46338
 Alpha virt. eigenvalues --    3.46934   3.47258   3.48047   3.48530   3.48812
 Alpha virt. eigenvalues --    3.49457   3.50563   3.50807   3.51152   3.51243
 Alpha virt. eigenvalues --    3.52333   3.52649   3.52981   3.53402   3.53585
 Alpha virt. eigenvalues --    3.54226   3.55079   3.55398   3.55955   3.56897
 Alpha virt. eigenvalues --    3.57335   3.57664   3.58282   3.59183   3.60216
 Alpha virt. eigenvalues --    3.60354   3.61239   3.61456   3.61975   3.62782
 Alpha virt. eigenvalues --    3.63446   3.63788   3.64690   3.64925   3.65291
 Alpha virt. eigenvalues --    3.66105   3.66380   3.67287   3.67940   3.68248
 Alpha virt. eigenvalues --    3.69651   3.70226   3.70621   3.71730   3.72156
 Alpha virt. eigenvalues --    3.72835   3.73747   3.74112   3.74449   3.74468
 Alpha virt. eigenvalues --    3.75401   3.76392   3.76677   3.77081   3.77631
 Alpha virt. eigenvalues --    3.78059   3.78771   3.79179   3.79516   3.79945
 Alpha virt. eigenvalues --    3.80338   3.80737   3.81293   3.81862   3.82711
 Alpha virt. eigenvalues --    3.83770   3.84318   3.84479   3.85356   3.85873
 Alpha virt. eigenvalues --    3.86210   3.87141   3.87340   3.88581   3.89271
 Alpha virt. eigenvalues --    3.89702   3.90273   3.90554   3.90904   3.91294
 Alpha virt. eigenvalues --    3.92221   3.92477   3.92818   3.93615   3.94366
 Alpha virt. eigenvalues --    3.94763   3.95118   3.95518   3.96379   3.97437
 Alpha virt. eigenvalues --    3.98206   3.98444   3.99181   3.99362   4.00065
 Alpha virt. eigenvalues --    4.00481   4.00776   4.01071   4.01627   4.01828
 Alpha virt. eigenvalues --    4.03309   4.03740   4.04015   4.04815   4.05147
 Alpha virt. eigenvalues --    4.05523   4.06221   4.06557   4.07232   4.07800
 Alpha virt. eigenvalues --    4.09047   4.09419   4.10213   4.10370   4.10788
 Alpha virt. eigenvalues --    4.11468   4.11869   4.12574   4.12876   4.13526
 Alpha virt. eigenvalues --    4.14193   4.14748   4.14818   4.15961   4.16164
 Alpha virt. eigenvalues --    4.16537   4.16868   4.17953   4.18132   4.18992
 Alpha virt. eigenvalues --    4.19908   4.20744   4.20909   4.21326   4.22623
 Alpha virt. eigenvalues --    4.23258   4.23303   4.24094   4.24218   4.24769
 Alpha virt. eigenvalues --    4.25651   4.25936   4.26141   4.27768   4.28388
 Alpha virt. eigenvalues --    4.29585   4.30127   4.30809   4.31776   4.32374
 Alpha virt. eigenvalues --    4.32749   4.33866   4.34392   4.35177   4.35737
 Alpha virt. eigenvalues --    4.36087   4.36902   4.38003   4.38609   4.39124
 Alpha virt. eigenvalues --    4.40803   4.41095   4.41870   4.42599   4.43220
 Alpha virt. eigenvalues --    4.43745   4.44649   4.44901   4.45743   4.46677
 Alpha virt. eigenvalues --    4.47931   4.48919   4.49543   4.49878   4.50471
 Alpha virt. eigenvalues --    4.50667   4.53828   4.55883   4.56349   4.57438
 Alpha virt. eigenvalues --    4.58161   4.59848   4.60335   4.60662   4.61404
 Alpha virt. eigenvalues --    4.62473   4.62688   4.63127   4.63889   4.64804
 Alpha virt. eigenvalues --    4.65264   4.65726   4.66713   4.69008   4.70457
 Alpha virt. eigenvalues --    4.71640   4.71774   4.72993   4.74390   4.75204
 Alpha virt. eigenvalues --    4.75767   4.76599   4.77531   4.79843   4.80355
 Alpha virt. eigenvalues --    4.80999   4.82526   4.84162   4.85637   4.85984
 Alpha virt. eigenvalues --    4.87931   4.88156   4.88556   4.89531   4.89963
 Alpha virt. eigenvalues --    4.90537   4.91708   4.92128   4.92826   4.93536
 Alpha virt. eigenvalues --    4.94259   4.95330   4.95390   4.96246   4.97416
 Alpha virt. eigenvalues --    4.98971   4.99802   5.00111   5.00794   5.01382
 Alpha virt. eigenvalues --    5.02565   5.03398   5.03571   5.04946   5.05305
 Alpha virt. eigenvalues --    5.05391   5.06447   5.06998   5.08710   5.09979
 Alpha virt. eigenvalues --    5.10576   5.10995   5.11021   5.12532   5.13042
 Alpha virt. eigenvalues --    5.13590   5.14344   5.14649   5.15038   5.15774
 Alpha virt. eigenvalues --    5.16111   5.16650   5.17411   5.17543   5.18735
 Alpha virt. eigenvalues --    5.19333   5.19509   5.19962   5.21147   5.22045
 Alpha virt. eigenvalues --    5.22951   5.23026   5.23618   5.24659   5.25410
 Alpha virt. eigenvalues --    5.26072   5.27271   5.27667   5.28199   5.29374
 Alpha virt. eigenvalues --    5.29852   5.31004   5.31403   5.31968   5.32219
 Alpha virt. eigenvalues --    5.33028   5.33396   5.34515   5.35584   5.36729
 Alpha virt. eigenvalues --    5.37378   5.37723   5.37985   5.39798   5.40155
 Alpha virt. eigenvalues --    5.41568   5.42201   5.43914   5.44138   5.45907
 Alpha virt. eigenvalues --    5.47097   5.47761   5.49712   5.51387   5.51890
 Alpha virt. eigenvalues --    5.53205   5.54708   5.55755   5.56906   5.57357
 Alpha virt. eigenvalues --    5.57947   5.58483   5.59577   5.60522   5.61172
 Alpha virt. eigenvalues --    5.61766   5.63444   5.64140   5.65941   5.66705
 Alpha virt. eigenvalues --    5.67799   5.68372   5.71362   5.74405   5.76766
 Alpha virt. eigenvalues --    5.77971   5.80630   5.83321   5.84231   5.86983
 Alpha virt. eigenvalues --    5.91086   5.92078   5.92117   5.92694   5.97508
 Alpha virt. eigenvalues --    5.99714   6.01280   6.05340   6.07176   6.12381
[...]
    15  C   -0.003837   0.005593  -0.004291  -0.008980  -0.080719   0.000051
    16  C   -0.162100   0.006234   0.000692  -0.005243   0.008693   0.000000
    17  C    0.212346  -0.037558   0.006312   0.022756  -0.002301  -0.000000
    18  C    0.060347   0.003044  -0.000768   0.000296  -0.000075  -0.000000
    19  C   -0.133295   0.000363   0.000568   0.000776   0.000004   0.000000
    20  C    0.031221   0.008239  -0.003173  -0.003545  -0.000004  -0.000000
    21  N    0.004803  -0.000177  -0.000014   0.000004  -0.000000  -0.000000
    22  C   -0.001324   0.000006  -0.000004  -0.000001   0.000000   0.000000
    23  C   -0.001661   0.000002  -0.000308  -0.000017  -0.000000   0.000000
    24  C    0.229637  -0.015949  -0.004524   0.003323   0.000052   0.000000
    25  C    5.716119   0.226848  -0.079786  -0.090785   0.000219   0.000000
    26  N    0.226848   5.703046   0.329537   0.338804   0.000302  -0.000000
    27  O   -0.079786   0.329537   8.212906  -0.121822  -0.000062  -0.000000
    28  O   -0.090785   0.338804  -0.121822   8.201280   0.000416  -0.000000
    29  C    0.000219   0.000302  -0.000062   0.000416   5.006832   0.004772
    30  H    0.000000  -0.000000  -0.000000  -0.000000   0.004772   0.523623
    31  H   -0.000000   0.000000   0.000000   0.000000   0.005976  -0.031464
    32  H   -0.000000   0.000000  -0.000000   0.000000  -0.021929  -0.018671
    33  H   -0.000000  -0.000000   0.000000   0.000000   0.000057  -0.001607
    34  H    0.000000   0.000000  -0.000000  -0.000000  -0.000006  -0.000002
    35  H    0.000000  -0.000000  -0.000000  -0.000000   0.000000  -0.000000
    36  H    0.000000   0.000000   0.000000   0.000000   0.000002  -0.000000
    37  H    0.009246   0.000428   0.004766  -0.011869  -0.013169  -0.000000
    38  H    0.019722   0.000020  -0.000028  -0.000944   0.000207   0.000000
    39  H    0.015463  -0.000180   0.000013   0.000023  -0.000014  -0.000000
    40  H   -0.001646   0.000004   0.000002   0.000001   0.000000   0.000000
    41  H   -0.000596   0.000001  -0.000000   0.000000   0.000000   0.000000
    42  H    0.000158  -0.000000  -0.000000   0.000000  -0.000000  -0.000000
    43  H    0.000275  -0.000001   0.000000  -0.000000  -0.000000  -0.000000
    44  H   -0.004854   0.000040   0.000002   0.000003   0.000000   0.000000
    45  H    0.006256  -0.000058   0.000193   0.000002  -0.000000  -0.000000
    46  H    0.000288  -0.000000  -0.000001  -0.000000   0.000000  -0.000000
    47  H    0.008193   0.002466   0.011275   0.000669   0.000000   0.000000
    48  H    0.000041   0.000062  -0.000003   0.000007   0.374655  -0.000063
              31         32         33         34         35         36
     1  C    0.423046   0.413585   0.001472   0.000007  -0.000000   0.000000
     2  C   -0.043867  -0.034153  -0.002024   0.000029  -0.000000  -0.000003
     3  C   -0.009347   0.019904   0.003416   0.000016   0.000034   0.000247
     4  C   -0.001660  -0.000282   0.333990  -0.001247  -0.000479  -0.000866
     5  C   -0.000898   0.000136   0.024826  -0.014483   0.002160   0.012670
     6  C   -0.000011   0.000003  -0.001669   0.398912  -0.015034   0.002272
     7  C    0.000000  -0.000000  -0.000171  -0.011817   0.412190  -0.014034
     8  C   -0.000001   0.000000  -0.000125   0.001841  -0.020827   0.405231
     9  N   -0.000004   0.000000   0.003619   0.004920   0.003427  -0.027404
    10  B    0.000017  -0.000017   0.000989   0.000654  -0.000022  -0.005701
    11  F    0.000000  -0.000000   0.000039   0.000008   0.000009   0.000144
    12  F   -0.000001  -0.000000   0.000021   0.000007  -0.000001   0.000389
    13  N    0.000110  -0.000380   0.002645   0.000034   0.000005  -0.000049
    14  C   -0.000800   0.001295   0.000095   0.000003  -0.000000  -0.000008
    15  C    0.000054  -0.000126   0.000065  -0.000000  -0.000000  -0.000010
    16  C    0.000001  -0.000006  -0.000001   0.000000  -0.000000  -0.000002
    17  C    0.000000   0.000000   0.000000   0.000000   0.000000   0.000003
    18  C   -0.000000   0.000000   0.000000  -0.000000  -0.000000  -0.000001
    19  C   -0.000000  -0.000000   0.000000  -0.000000  -0.000000  -0.000000
    20  C    0.000000  -0.000000   0.000000   0.000000   0.000000  -0.000000
    21  N   -0.000000  -0.000000  -0.000000   0.000000   0.000000   0.000000
    22  C   -0.000000   0.000000   0.000000   0.000000  -0.000000  -0.000000
    23  C   -0.000000  -0.000000   0.000000   0.000000   0.000000   0.000000
    24  C   -0.000000  -0.000000  -0.000000   0.000000  -0.000000   0.000000
    25  C   -0.000000  -0.000000  -0.000000   0.000000   0.000000   0.000000
    26  N    0.000000   0.000000  -0.000000   0.000000  -0.000000   0.000000
    27  O    0.000000  -0.000000   0.000000  -0.000000  -0.000000   0.000000
    28  O    0.000000   0.000000   0.000000  -0.000000  -0.000000   0.000000
    29  C    0.005976  -0.021929   0.000057  -0.000006   0.000000   0.000002
    30  H   -0.031464  -0.018671  -0.001607  -0.000002  -0.000000  -0.000000
    31  H    0.520665  -0.018359  -0.001152  -0.000002  -0.000000  -0.000000
    32  H   -0.018359   0.530222   0.000106   0.000000  -0.000000   0.000000
    33  H   -0.001152   0.000106   0.460376   0.001681  -0.000001   0.000003
    34  H   -0.000002   0.000000   0.001681   0.435542   0.000054  -0.000167
    35  H   -0.000000  -0.000000  -0.000001   0.000054   0.442148   0.000415
    36  H   -0.000000   0.000000   0.000003  -0.000167   0.000415   0.447529
    37  H    0.000000   0.000000  -0.000001  -0.000000  -0.000000  -0.000000
    38  H   -0.000000  -0.000000  -0.000000   0.000000   0.000000  -0.000004
    39  H    0.000000   0.000000   0.000000   0.000000   0.000000  -0.000000
    40  H   -0.000000   0.000000  -0.000000   0.000000   0.000000   0.000000
    41  H   -0.000000  -0.000000   0.000000   0.000000  -0.000000   0.000000
    42  H    0.000000   0.000000   0.000000   0.000000  -0.000000  -0.000000
    43  H    0.000000   0.000000  -0.000000  -0.000000   0.000000  -0.000000
    44  H   -0.000000  -0.000000   0.000000   0.000000  -0.000000   0.000000
    45  H    0.000000   0.000000  -0.000000  -0.000000   0.000000  -0.000000
    46  H    0.000000   0.000000  -0.000000   0.000000  -0.000000   0.000000
    47  H   -0.000000   0.000000  -0.000000   0.000000  -0.000000  -0.000000
    48  H   -0.000021   0.001451  -0.000014  -0.000000  -0.000000   0.000000
              37         38         39         40         41         42
     1  C    0.000034  -0.000003   0.000000  -0.000000   0.000000   0.000000
     2  C    0.003121  -0.000043   0.000003  -0.000000  -0.000000   0.000000
     3  C   -0.000872   0.000319  -0.000006   0.000000   0.000000  -0.000000
     4  C    0.000007  -0.000100   0.000000  -0.000000   0.000000  -0.000000
     5  C    0.000005   0.000020  -0.000001   0.000000  -0.000000  -0.000000
     6  C    0.000000   0.000002   0.000000   0.000000   0.000000   0.000000
     7  C    0.000000   0.000011  -0.000000  -0.000000  -0.000000   0.000000
     8  C   -0.000000  -0.000148  -0.000001  -0.000000  -0.000000   0.000000
     9  N    0.000004  -0.000728   0.000005  -0.000000  -0.000000   0.000000
    10  B    0.000457  -0.008712   0.000024  -0.000005  -0.000000   0.000000
    11  F    0.000187  -0.009009  -0.000074   0.000000  -0.000000  -0.000000
    12  F   -0.000077   0.000103   0.001466  -0.000002  -0.000000   0.000000
    13  N    0.004937   0.001960   0.000044  -0.000000  -0.000000   0.000000
    14  C    0.018604   0.006227   0.000142   0.000003   0.000000  -0.000000
    15  C    0.381463  -0.056382   0.000211  -0.000022  -0.000000   0.000000
    16  C   -0.035515   0.416044  -0.009847   0.000178   0.000002  -0.000000
    17  C   -0.012460  -0.002105  -0.039854   0.006412   0.000310  -0.000032
    18  C   -0.000370  -0.016660   0.407619  -0.005000  -0.003033   0.000220
    19  C   -0.000111   0.000418  -0.015318   0.404497   0.001840   0.000725
    20  C    0.000163  -0.000143   0.005902  -0.032561   0.001088   0.009394
    21  N    0.000001  -0.000002  -0.000140  -0.003478  -0.058733  -0.020032
    22  C   -0.000000  -0.000000   0.000128  -0.005071   0.425898   0.404072
    23  C    0.000000   0.000000   0.000014  -0.000395  -0.001361  -0.017566
    24  C   -0.000584   0.000361  -0.001280   0.009105   0.005557  -0.000766
    25  C    0.009246   0.019722   0.015463  -0.001646  -0.000596   0.000158
    26  N    0.000428   0.000020  -0.000180   0.000004   0.000001  -0.000000
    27  O    0.004766  -0.000028   0.000013   0.000002  -0.000000  -0.000000
    28  O   -0.011869  -0.000944   0.000023   0.000001   0.000000   0.000000
    29  C   -0.013169   0.000207  -0.000014   0.000000   0.000000  -0.000000
    30  H   -0.000000   0.000000  -0.000000   0.000000   0.000000  -0.000000
    31  H    0.000000  -0.000000   0.000000  -0.000000  -0.000000   0.000000
    32  H    0.000000  -0.000000   0.000000   0.000000  -0.000000   0.000000
    33  H   -0.000001  -0.000000   0.000000  -0.000000   0.000000   0.000000
    34  H   -0.000000   0.000000   0.000000   0.000000   0.000000   0.000000
    35  H   -0.000000   0.000000   0.000000   0.000000  -0.000000  -0.000000
    36  H   -0.000000  -0.000004  -0.000000   0.000000   0.000000  -0.000000
    37  H    0.527271   0.002243   0.000028  -0.000000  -0.000000   0.000000
    38  H    0.002243   0.511589   0.003333   0.000022   0.000000   0.000000
    39  H    0.000028   0.003333   0.496969  -0.003224   0.000001  -0.000001
    40  H   -0.000000   0.000022  -0.003224   0.475463   0.000469   0.000366
    41  H   -0.000000   0.000000   0.000001   0.000469   0.527663  -0.021063
    42  H    0.000000   0.000000  -0.000001   0.000366  -0.021063   0.525701
    43  H    0.000000  -0.000001   0.000022  -0.009397  -0.044730  -0.017777
    44  H   -0.000000   0.000000  -0.000001   0.000224   0.004467  -0.000734
    45  H    0.000000  -0.000000   0.000000  -0.000113  -0.001197   0.001175
    46  H    0.000000   0.000000  -0.000000  -0.000035  -0.000749   0.002726
    47  H   -0.000030   0.000002   0.000017  -0.000154   0.000208  -0.000037
    48  H    0.001188  -0.000004  -0.000000   0.000000   0.000000  -0.000000
              43         44         45         46         47         48
     1  C   -0.000000   0.000000  -0.000000  -0.000000   0.000000  -0.000224
     2  C   -0.000000  -0.000000   0.000000  -0.000000   0.000000   0.007034
     3  C   -0.000000   0.000000  -0.000000   0.000000   0.000000   0.003307
     4  C    0.000000   0.000000  -0.000000  -0.000000  -0.000000  -0.000562
     5  C   -0.000000  -0.000000   0.000000   0.000000   0.000000   0.000087
     6  C   -0.000000   0.000000  -0.000000   0.000000   0.000000   0.000001
     7  C    0.000000  -0.000000   0.000000  -0.000000   0.000000   0.000000
     8  C    0.000000   0.000000  -0.000000   0.000000  -0.000000   0.000000
     9  N    0.000000  -0.000000   0.000000  -0.000000  -0.000000   0.000001
    10  B    0.000000  -0.000000   0.000000  -0.000000  -0.000000   0.000193
    11  F    0.000000  -0.000000   0.000000  -0.000000   0.000000   0.000001
    12  F    0.000000   0.000000   0.000000  -0.000000   0.000000   0.000008
    13  N    0.000000  -0.000000   0.000000   0.000000  -0.000000   0.004015
    14  C   -0.000000   0.000000  -0.000000  -0.000000   0.000025  -0.004271
    15  C    0.000001  -0.000001   0.000002   0.000000   0.000118  -0.005900
    16  C    0.000002   0.000012  -0.000018   0.000000  -0.000307   0.000221
    17  C   -0.000436   0.000177  -0.000134  -0.000024   0.000645   0.000053
    18  C    0.003919  -0.000768   0.000428   0.000117   0.001202  -0.000006
    19  C   -0.000224   0.006697  -0.004705  -0.000760   0.001475   0.000000
    20  C   -0.017662   0.002723  -0.025720   0.009499   0.011627  -0.000000
    21  N   -0.025955  -0.059512  -0.024394  -0.020082  -0.004414   0.000000
    22  C    0.409432  -0.001101   0.007522  -0.017545  -0.000087   0.000000
    23  C    0.007773   0.425894   0.407545   0.403619  -0.004347   0.000000
    24  C   -0.003541   0.001236   0.004891   0.000720   0.352357   0.000003
    25  C    0.000275  -0.004854   0.006256   0.000288   0.008193   0.000041
    26  N   -0.000001   0.000040  -0.000058  -0.000000   0.002466   0.000062
    27  O    0.000000   0.000002   0.000193  -0.000001   0.011275  -0.000003
    28  O   -0.000000   0.000003   0.000002  -0.000000   0.000669   0.000007
    29  C   -0.000000   0.000000  -0.000000   0.000000   0.000000   0.374655
    30  H   -0.000000   0.000000  -0.000000  -0.000000   0.000000  -0.000063
    31  H    0.000000  -0.000000   0.000000   0.000000  -0.000000  -0.000021
    32  H    0.000000  -0.000000   0.000000   0.000000   0.000000   0.001451
    33  H   -0.000000   0.000000  -0.000000  -0.000000  -0.000000  -0.000014
    34  H   -0.000000   0.000000  -0.000000   0.000000   0.000000  -0.000000
    35  H    0.000000  -0.000000   0.000000  -0.000000  -0.000000  -0.000000
    36  H   -0.000000   0.000000  -0.000000   0.000000  -0.000000   0.000000
    37  H    0.000000  -0.000000   0.000000   0.000000  -0.000030   0.001188
    38  H   -0.000001   0.000000  -0.000000   0.000000   0.000002  -0.000004
    39  H    0.000022  -0.000001   0.000000  -0.000000   0.000017  -0.000000
    40  H   -0.009397   0.000224  -0.000113  -0.000035  -0.000154   0.000000
    41  H   -0.044730   0.004467  -0.001197  -0.000749   0.000208   0.000000
    42  H   -0.017777  -0.000734   0.001175   0.002726  -0.000037  -0.000000
    43  H    0.558541  -0.001217   0.000549   0.001157  -0.000123  -0.000000
    44  H   -0.001217   0.527476  -0.044444  -0.020927   0.000491   0.000000
    45  H    0.000549  -0.044444   0.557592  -0.017782  -0.008022  -0.000000
    46  H    0.001157  -0.020927  -0.017782   0.525267   0.000339  -0.000000
    47  H   -0.000123   0.000491  -0.008022   0.000339   0.450766   0.000000
    48  H   -0.000000   0.000000  -0.000000  -0.000000   0.000000   0.446779
 Mulliken charges:
               1
     1  C   -0.414145
     2  C   -0.051666
     3  C    0.067550
     4  C   -0.028936
     5  C   -0.024301
     6  C   -0.137234
     7  C   -0.245226
     8  C   -0.060154
     9  N   -0.085058
    10  B    0.383830
    11  F   -0.344859
    12  F   -0.360345
    13  N   -0.112404
    14  C    0.026582
    15  C   -0.090993
    16  C   -0.115787
    17  C    0.025634
    18  C   -0.113475
    19  C   -0.180705
    20  C    0.158312
    21  N   -0.184858
    22  C   -0.292644
    23  C   -0.295157
    24  C   -0.086772
    25  C   -0.056621
    26  N    0.422895
    27  O   -0.350629
    28  O   -0.328357
    29  C   -0.056182
    30  H    0.154787
    31  H    0.157716
    32  H    0.127219
    33  H    0.173366
    34  H    0.184016
    35  H    0.175919
    36  H    0.179342
    37  H    0.120905
    38  H    0.132412
    39  H    0.138514
    40  H    0.164356
    41  H    0.163957
    42  H    0.133471
    43  H    0.139394
    44  H    0.164120
    45  H    0.140431
    46  H    0.134175
    47  H    0.175644
    48  H    0.171959
 Sum of Mulliken charges =  -0.00000
 Mulliken charges with hydrogens summed into heavy atoms:
               1
     1  C    0.025578
     2  C   -0.051666
     3  C    0.067550
     4  C    0.144430
     5  C   -0.024301
     6  C    0.046782
     7  C   -0.069306
     8  C    0.119189
     9  N   -0.085058
    10  B    0.383830
    11  F   -0.344859
    12  F   -0.360345
    13  N   -0.112404
    14  C    0.026582
    15  C    0.029912
    16  C    0.016626
    17  C    0.025634
    18  C    0.025039
    19  C   -0.016349
    20  C    0.158312
    21  N   -0.184858
    22  C    0.144177
    23  C    0.143569
    24  C    0.088872
    25  C   -0.056621
    26  N    0.422895
    27  O   -0.350629
    28  O   -0.328357
    29  C    0.115777
 Electronic spatial extent (au):  <R**2>=          15523.9911
 Charge=              0.0000 electrons
 Dipole moment (field-independent basis, Debye):
    X=             -3.3178    Y=             -0.8408    Z=             -4.6391  Tot=              5.7650
 Quadrupole moment (field-independent basis, Debye-Ang):
   XX=            -68.5999   YY=           -155.7591   ZZ=           -179.5834
   XY=             31.5470   XZ=              1.7570   YZ=             -7.5779
 Traceless Quadrupole moment (field-independent basis, Debye-Ang):
   XX=             66.0476   YY=            -21.1117   ZZ=            -44.9359
   XY=             31.5470   XZ=              1.7570   YZ=             -7.5779
 Octapole moment (field-independent basis, Debye-Ang**2):
  XXX=           -250.4159  YYY=            -32.0454  ZZZ=              0.3671  XYY=             49.9781
  XXY=            -72.3196  XXZ=            -35.9324  XZZ=            -17.1128  YZZ=             -7.7024
  YYZ=            -22.6588  XYZ=            -36.4530
 Hexadecapole moment (field-independent basis, Debye-Ang**3):
 XXXX=         -11603.7414 YYYY=          -3130.9519 ZZZZ=           -821.7714 XXXY=            624.3569
 XXXZ=             -1.8249 YYYX=            152.0240 YYYZ=           -108.7774 ZZZX=            -27.6011
 ZZZY=             20.1569 XXYY=          -2962.5990 XXZZ=          -3037.9444 YYZZ=           -706.2148
 XXYZ=            -21.9656 YYXZ=            102.9020 ZZXY=             63.4534
 N-N= 2.633329861025D+03 E-N=-8.462229519899D+03  KE= 1.360479421278D+03
 No NMR shielding tensors so no spin-rotation constants.
 Leave Link  601 at Thu Nov  6 05:39:19 2025, MaxMem= 30870077440 cpu:              87.3 elap:               1.6
 (Enter /public/software/gauss/g16/l9999.exe)
 1\1\GINC-CU015\SP\RM062X\def2TZVPP\C20H19B1F2N4O2\BAIDING\06-Nov-2025\
 0\\#p M062X/DEF2TZVPP scrf=(solvent=water) em=GD3\\Energy calculation 
 for M100032403\\0,1\C,0,4.380574,3.557749,-1.137681\C,0,3.382512,2.496
 611,-0.801036\C,0,3.679407,1.131962,-0.486013\C,0,4.914927,0.521907,-0
 .368673\C,0,5.039427,-0.813607,0.027688\C,0,6.169562,-1.637489,0.22200
 4\C,0,5.697726,-2.884777,0.636186\C,0,4.297658,-2.795386,0.685558\N,0,
 3.899955,-1.555271,0.322474\B,0,2.434495,-1.051856,0.21935\F,0,1.79949
 2,-1.162622,1.457635\F,0,1.757941,-1.844142,-0.724757\N,0,2.480892,0.4
 43042,-0.242026\C,0,1.460883,1.341105,-0.385252\C,0,0.041923,1.140163,
 -0.243821\C,0,-0.646436,-0.031036,-0.22658\C,0,-2.087085,-0.210612,-0.
 137527\C,0,-2.628096,-1.379229,-0.718808\C,0,-3.984904,-1.624186,-0.83
 0313\C,0,-4.938881,-0.681948,-0.367421\N,0,-6.288026,-0.876211,-0.5160
 26\C,0,-6.780009,-2.180792,-0.953832\C,0,-7.226339,0.000303,0.182169\C
 ,0,-4.427842,0.475728,0.270119\C,0,-3.06077,0.675675,0.381147\N,0,-2.6
 86816,1.841382,1.194357\O,0,-3.313762,2.892086,1.028866\O,0,-1.795636,
 1.706971,2.035321\C,0,2.011304,2.613965,-0.719273\H,0,5.103216,3.69764
 1,-0.326321\H,0,4.951506,3.296586,-2.035596\H,0,3.88097,4.512392,-1.31
 7554\H,0,5.809792,1.099024,-0.575094\H,0,7.196195,-1.332288,0.071199\H
 ,0,6.280909,-3.762058,0.878891\H,0,3.577354,-3.553661,0.961148\H,0,-0.
 501635,2.079616,-0.211634\H,0,-0.103142,-0.953338,-0.397735\H,0,-1.934
 741,-2.111919,-1.120798\H,0,-4.307655,-2.551245,-1.285799\H,0,-6.54342
 2,-2.979159,-0.237544\H,0,-7.862202,-2.126539,-1.066906\H,0,-6.356817,
 -2.452543,-1.924819\H,0,-7.133666,-0.073327,1.274155\H,0,-7.077793,1.0
 4436,-0.107565\H,0,-8.241279,-0.280145,-0.09739\H,0,-5.088493,1.202477
 ,0.720702\H,0,1.421437,3.504591,-0.890795\\Version=ES64L-G16RevA.03\St
 ate=1-A\HF=-1367.638785\RMSD=9.826e-09\Dipole=-1.3053166,-0.3307887,-1
 .8251428\Quadrupole=49.1047484,-15.6960007,-33.4087477,23.4544453,1.30
 62927,-5.6339627\PG=C01 [X(C20H19B1F2N4O2)]\\@


 WE THE UNWILLING
 LED BY THE UNQUALIFIED
 HAVE BEEN DOING THE UNBELIEVABLE SO LONG WITH SO LITTLE
 THAT WE NOW ATTEMPT THE IMPOSSIBLE WITH NOTHING.

                                    -- ANONYMOUS
 Job cpu time:       0 days  8 hours 27 minutes 20.5 seconds.
 Elapsed time:       0 days  0 hours  8 minutes  2.8 seconds.
 File lengths (MBytes):  RWF=    920 Int=      0 D2E=      0 Chk=     80 Scr=      1
 Normal termination of Gaussian 16 at Thu Nov  6 05:39:19 2025.
