 Entering Gaussian System, Link 0=g16
 Input=M100024797_reduced_sp.gjf
 Output=M100024797_reduced_sp.log
 Initial command:
 /public/software/gauss/g16/l1.exe "/public/home/baiding/1101_v2_sp/tmp_M100024797_reduced_sp_1568608/Gau-4109763.inp" -scrdir="/public/home/baiding/1101_v2_sp/tmp_M100024797_reduced_sp_1568608/"
 Entering Link 1 = /public/software/gauss/g16/l1.exe PID=   4109764.
  
 Copyright (c) 1988,1990,1992,1993,1995,1998,2003,2009,2016,
            Gaussian, Inc.  All Rights Reserved.
  
 This is part of the Gaussian(R) 16 program.  It is based on
 the Gaussian(R) 09 system (copyright 2009, Gaussian, Inc.),
 the Gaussian(R) 03 system (copyright 2003, Gaussian, Inc.),
 the Gaussian(R) 98 system (copyright 1998, Gaussian, Inc.),
 the Gaussian(R) 94 system (copyright 1995, Gaussian, Inc.),
 the Gaussian 92(TM) system (copyright 1992, Gaussian, Inc.),
 the Gaussian 90(TM) system (copyright 1990, Gaussian, Inc.),
 the Gaussian 88(TM) system (copyright 1988, Gaussian, Inc.),
 the Gaussian 86(TM) system (copyright 1986, Carnegie Mellon
 University), and the Gaussian 82(TM) system (copyright 1983,
 Carnegie Mellon University). Gaussian is a federally registered
 trademark of Gaussian, Inc.
  
 This software contains proprietary and confidential information,
 including trade secrets, belonging to Gaussian, Inc.
  
 This software is provided under written license and may be
 used, copied, transmitted, or stored only in accord with that
 written license.
  
 The following legend is applicable only to US Government
 contracts under FAR:
  
                    RESTRICTED RIGHTS LEGEND
  
 Use, reproduction and disclosure by the US Government is
 subject to restrictions as set forth in subparagraphs (a)
 and (c) of the Commercial Computer Software - Restricted
 Rights clause in FAR 52.227-19.
  
 Gaussian, Inc.
 340 Quinnipiac St., Bldg. 40, Wallingford CT 06492
  
  
 ---------------------------------------------------------------
 Warning -- This program may not be used in any manner that
 competes with the business of Gaussian, Inc. or will provide
 assistance to any competitor of Gaussian, Inc.  The licensee
 of this program is prohibited from giving any competitor of
 Gaussian, Inc. access to this program.  By using this program,
 the user acknowledges that Gaussian, Inc. is engaged in the
 business of creating and licensing software in the field of
 computational chemistry and represents and warrants to the
 licensee that it is not a competitor of Gaussian, Inc. and that
 it will not use this program in any manner prohibited above.
 ---------------------------------------------------------------
  

 Cite this work as:
 Gaussian 16, Revision A.03,
 M. J. Frisch, G. W. Trucks, H. B. Schlegel, G. E. Scuseria, 
 M. A. Robb, J. R. Cheeseman, G. Scalmani, V. Barone, 
 G. A. Petersson, H. Nakatsuji, X. Li, M. Caricato, A. V. Marenich, 
 J. Bloino, B. G. Janesko, R. Gomperts, B. Mennucci, H. P. Hratchian, 
 J. V. Ortiz, A. F. Izmaylov, J. L. Sonnenberg, D. Williams-Young, 
 F. Ding, F. Lipparini, F. Egidi, J. Goings, B. Peng, A. Petrone, 
 T. Henderson, D. Ranasinghe, V. G. Zakrzewski, J. Gao, N. Rega, 
 G. Zheng, W. Liang, M. Hada, M. Ehara, K. Toyota, R. Fukuda, 
 J. Hasegawa, M. Ishida, T. Nakajima, Y. Honda, O. Kitao, H. Nakai, 
 T. Vreven, K. Throssell, J. A. Montgomery, Jr., J. E. Peralta, 
 F. Ogliaro, M. J. Bearpark, J. J. Heyd, E. N. Brothers, K. N. Kudin, 
 V. N. Staroverov, T. A. Keith, R. Kobayashi, J. Normand, 
 K. Raghavachari, A. P. Rendell, J. C. Burant, S. S. Iyengar, 
 J. Tomasi, M. Cossi, J. M. Millam, M. Klene, C. Adamo, R. Cammi, 
 J. W. Ochterski, R. L. Martin, K. Morokuma, O. Farkas, 
 J. B. Foresman, and D. J. Fox, Gaussian, Inc., Wallingford CT, 2016.
 
 ******************************************
 Gaussian 16:  ES64L-G16RevA.03 25-Dec-2016
                 6-Nov-2025 
 ******************************************
 %nprocshared=64
 Will use up to   64 processors via shared memory.
 %mem=230GB
 %chk=M100024797_reduced_sp.chk
 ----------------------------------------------
 #p M062X/DEF2TZVPP scrf=(solvent=water) em=GD3
 ----------------------------------------------
 1/38=1,172=1/1;
 2/12=2,17=6,18=5,40=1/2;
 3/5=44,7=202,11=2,25=1,30=1,70=2201,72=1,74=-55,124=31/1,2,3;
 4//1;
 5/5=2,38=5,53=1/2;
 6/7=2,8=2,9=2,10=2,28=1/1;
 99/5=1,9=1/99;
 Leave Link    1 at Thu Nov  6 01:26:02 2025, MaxMem= 30870077440 cpu:               9.5 elap:               0.2
 (Enter /public/software/gauss/g16/l101.exe)
 -----------------------------------------
 Energy calculation for M100024797_reduced
 -----------------------------------------
 Symbolic Z-matrix:
 Charge = -1 Multiplicity = 2
 C                    -4.11824  -2.05112   3.22583 
 C                    -4.00612  -2.10852   1.69162 
 C                    -2.90226  -1.2383    1.14769 
 C                    -2.99687   0.14653   0.89075 
 C                    -4.25539   0.95083   1.06419 
 C                    -1.69501   0.59479   0.51878 
 C                    -1.19472   1.87645   0.13757 
 C                    -2.12557   3.02295   0.00535 
 C                    -3.1092    3.041    -1.00853 
 C                    -3.97871   4.11196  -1.14189 
 C                    -3.90224   5.20059  -0.25203 
 C                    -4.81303   6.33987  -0.36584 
 O                    -5.69055   6.45927  -1.22228 
 C                    -2.93107   5.19056   0.76392 
 C                    -2.05326   4.12036   0.88631 
 C                     0.19637   2.04834  -0.11729 
 C                     0.94299   3.1705   -0.59725 
 C                     0.43059   4.51408  -1.03311 
 C                     2.29134   2.77673  -0.66577 
 C                     3.42972   3.63406  -1.15121 
 C                     4.04352   4.53243  -0.0632 
 C                     2.366     1.42103  -0.26165 
 C                     3.47983   0.51001  -0.20326 
 C                     4.80248   0.81996  -0.10669 
 C                     5.90876  -0.13503  -0.09528 
 C                     5.75243  -1.52879  -0.26923 
 C                     6.84719  -2.38492  -0.23717 
 C                     8.15322  -1.90434  -0.03855 
 C                     9.33425  -2.84242  -0.03567 
 C                     8.31438  -0.52303   0.13257 
 C                     7.22116   0.34058   0.10415 
 N                     1.08162   0.99031   0.04688 
 B                     0.69658  -0.43047   0.48759 
 F                     1.30208  -0.74514   1.73278 
 F                     1.15081  -1.38666  -0.45496 
 N                    -0.83219  -0.49207   0.60717 
 C                    -1.55764  -1.61656   0.96239 
 C                    -0.87812  -2.8734    1.25209 
 C                    -1.1883   -4.15742   0.93919 
 C                    -2.19542  -4.73819   0.04384 
 C                    -2.89811  -4.01559  -0.94423 
 C                    -3.78958  -4.65141  -1.80193 
 C                    -4.03354  -6.03241  -1.71736 
 C                    -5.02673  -6.70265  -2.63315 
 C                    -3.33078  -6.75629  -0.74524 
 C                    -2.42843  -6.1263    0.10978 
 H                    -4.93332  -2.69045   3.58339 
 H                    -3.19022  -2.39367   3.69608 
 H                    -4.3118   -1.03157   3.57562 
 H                    -3.84967  -3.14638   1.39052 
 H                    -4.96396  -1.80755   1.25128 
 H                    -4.75264   1.1808    0.11388 
 H                    -4.97475   0.40151   1.67738 
 H                    -4.06718   1.9077    1.55912 
 H                    -3.16828   2.20619  -1.6998 
 H                    -4.72119   4.12626  -1.93374 
 H                    -4.66777   7.13116   0.39496 
 H                    -2.87625   6.02573   1.45765 
 H                    -1.30976   4.11686   1.67698 
 H                    -0.49649   4.43443  -1.60716 
 H                     0.22363   5.18667  -0.19202 
 H                     1.16813   5.01348  -1.66781 
 H                     4.21103   2.99851  -1.58039 
 H                     3.07783   4.27407  -1.96908 
 H                     4.86658   5.13144  -0.46844 
 H                     3.29524   5.2208    0.34408 
 H                     4.43562   3.94041   0.77068 
 H                     3.20262  -0.53903  -0.23584 
 H                     5.10428   1.85773  -0.00019 
 H                     4.76419  -1.94793  -0.43258 
 H                     6.68947  -3.45255  -0.37214 
 H                     9.60281  -3.14861  -1.05492 
 H                     10.21623  -2.3715    0.40777 
 H                     9.11702  -3.75816   0.52434 
 H                     9.31083  -0.11784   0.29137 
 H                     7.37859   1.40747   0.24286 
 H                     0.04043  -2.74587   1.8228 
 H                    -0.54105  -4.90812   1.39136 
 H                    -2.73183  -2.94886  -1.04655 
 H                    -4.30639  -4.066    -2.55882 
 H                    -4.94116  -6.32807  -3.65853 
 H                    -4.88462  -7.7869   -2.65093 
 H                    -6.05751  -6.51128  -2.30859 
 H                    -3.48725  -7.82888  -0.66114 
 H                    -1.88729  -6.71687   0.84494 
 
 ITRead=  0  0  0  0  0  0  0  0  0  0  0  0  0  0  0  0  0  0  0  0
 ITRead=  0  0  0  0  0  0  0  0  0  0  0  0  0  0  0  0  0  0  0  0
 ITRead=  0  0  0  0  0  0  0  0  0  0  0  0  0  0  0  0  0  0  0  0
 ITRead=  0  0  0  0  0  0  0  0  0  0  0  0  0  0  0  0  0  0  0  0
 ITRead=  0  0  0  0  0
 MicOpt= -1 -1 -1 -1 -1 -1 -1 -1 -1 -1 -1 -1 -1 -1 -1 -1 -1 -1 -1 -1
 MicOpt= -1 -1 -1 -1 -1 -1 -1 -1 -1 -1 -1 -1 -1 -1 -1 -1 -1 -1 -1 -1
 MicOpt= -1 -1 -1 -1 -1 -1 -1 -1 -1 -1 -1 -1 -1 -1 -1 -1 -1 -1 -1 -1
 MicOpt= -1 -1 -1 -1 -1 -1 -1 -1 -1 -1 -1 -1 -1 -1 -1 -1 -1 -1 -1 -1
 MicOpt= -1 -1 -1 -1 -1
 NAtoms=     85 NQM=       85 NQMF=       0 NMMI=      0 NMMIF=      0
                NMic=       0 NMicF=      0.
                    Isotopes and Nuclear Properties:
 (Nuclear quadrupole moments (NQMom) in fm**2, nuclear magnetic moments (NMagM)
  in nuclear magnetons)

  Atom         1           2           3           4           5           6           7           8           9          10
 IAtWgt=          12          12          12          12          12          12          12          12          12          12
 AtmWgt=  12.0000000  12.0000000  12.0000000  12.0000000  12.0000000  12.0000000  12.0000000  12.0000000  12.0000000  12.0000000
 NucSpn=           0           0           0           0           0           0           0           0           0           0
 AtZEff=  -0.0000000  -0.0000000  -0.0000000  -0.0000000  -0.0000000  -0.0000000  -0.0000000  -0.0000000  -0.0000000  -0.0000000
 NQMom=    0.0000000   0.0000000   0.0000000   0.0000000   0.0000000   0.0000000   0.0000000   0.0000000   0.0000000   0.0000000
 NMagM=    0.0000000   0.0000000   0.0000000   0.0000000   0.0000000   0.0000000   0.0000000   0.0000000   0.0000000   0.0000000
 AtZNuc=   6.0000000   6.0000000   6.0000000   6.0000000   6.0000000   6.0000000   6.0000000   6.0000000   6.0000000   6.0000000

  Atom        11          12          13          14          15          16          17          18          19          20
 IAtWgt=          12          12          16          12          12          12          12          12          12          12
 AtmWgt=  12.0000000  12.0000000  15.9949146  12.0000000  12.0000000  12.0000000  12.0000000  12.0000000  12.0000000  12.0000000
 NucSpn=           0           0           0           0           0           0           0           0           0           0
 AtZEff=  -0.0000000  -0.0000000  -0.0000000  -0.0000000  -0.0000000  -0.0000000  -0.0000000  -0.0000000  -0.0000000  -0.0000000
 NQMom=    0.0000000   0.0000000   0.0000000   0.0000000   0.0000000   0.0000000   0.0000000   0.0000000   0.0000000   0.0000000
 NMagM=    0.0000000   0.0000000   0.0000000   0.0000000   0.0000000   0.0000000   0.0000000   0.0000000   0.0000000   0.0000000
 AtZNuc=   6.0000000   6.0000000   8.0000000   6.0000000   6.0000000   6.0000000   6.0000000   6.0000000   6.0000000   6.0000000

  Atom        21          22          23          24          25          26          27          28          29          30
 IAtWgt=          12          12          12          12          12          12          12          12          12          12
 AtmWgt=  12.0000000  12.0000000  12.0000000  12.0000000  12.0000000  12.0000000  12.0000000  12.0000000  12.0000000  12.0000000
 NucSpn=           0           0           0           0           0           0           0           0           0           0
 AtZEff=  -0.0000000  -0.0000000  -0.0000000  -0.0000000  -0.0000000  -0.0000000  -0.0000000  -0.0000000  -0.0000000  -0.0000000
 NQMom=    0.0000000   0.0000000   0.0000000   0.0000000   0.0000000   0.0000000   0.0000000   0.0000000   0.0000000   0.0000000
 NMagM=    0.0000000   0.0000000   0.0000000   0.0000000   0.0000000   0.0000000   0.0000000   0.0000000   0.0000000   0.0000000
 AtZNuc=   6.0000000   6.0000000   6.0000000   6.0000000   6.0000000   6.0000000   6.0000000   6.0000000   6.0000000   6.0000000

  Atom        31          32          33          34          35          36          37          38          39          40
 IAtWgt=          12          14          11          19          19          14          12          12          12          12
 AtmWgt=  12.0000000  14.0030740  11.0093053  18.9984033  18.9984033  14.0030740  12.0000000  12.0000000  12.0000000  12.0000000
 NucSpn=           0           2           3           1           1           2           0           0           0           0
 AtZEff=  -0.0000000  -0.0000000  -0.0000000  -0.0000000  -0.0000000  -0.0000000  -0.0000000  -0.0000000  -0.0000000  -0.0000000
 NQMom=    0.0000000   2.0440000   4.0590000   0.0000000   0.0000000   2.0440000   0.0000000   0.0000000   0.0000000   0.0000000
 NMagM=    0.0000000   0.4037610   2.6886370   2.6288670   2.6288670   0.4037610   0.0000000   0.0000000   0.0000000   0.0000000
 AtZNuc=   6.0000000   7.0000000   5.0000000   9.0000000   9.0000000   7.0000000   6.0000000   6.0000000   6.0000000   6.0000000

  Atom        41          42          43          44          45          46          47          48          49          50
 IAtWgt=          12          12          12          12          12          12           1           1           1           1
 AtmWgt=  12.0000000  12.0000000  12.0000000  12.0000000  12.0000000  12.0000000   1.0078250   1.0078250   1.0078250   1.0078250
 NucSpn=           0           0           0           0           0           0           1           1           1           1
 AtZEff=  -0.0000000  -0.0000000  -0.0000000  -0.0000000  -0.0000000  -0.0000000  -0.0000000  -0.0000000  -0.0000000  -0.0000000
 NQMom=    0.0000000   0.0000000   0.0000000   0.0000000   0.0000000   0.0000000   0.0000000   0.0000000   0.0000000   0.0000000
 NMagM=    0.0000000   0.0000000   0.0000000   0.0000000   0.0000000   0.0000000   2.7928460   2.7928460   2.7928460   2.7928460
 AtZNuc=   6.0000000   6.0000000   6.0000000   6.0000000   6.0000000   6.0000000   1.0000000   1.0000000   1.0000000   1.0000000

  Atom        51          52          53          54          55          56          57          58          59          60
 IAtWgt=           1           1           1           1           1           1           1           1           1           1
 AtmWgt=   1.0078250   1.0078250   1.0078250   1.0078250   1.0078250   1.0078250   1.0078250   1.0078250   1.0078250   1.0078250
 NucSpn=           1           1           1           1           1           1           1           1           1           1
 AtZEff=  -0.0000000  -0.0000000  -0.0000000  -0.0000000  -0.0000000  -0.0000000  -0.0000000  -0.0000000  -0.0000000  -0.0000000
 NQMom=    0.0000000   0.0000000   0.0000000   0.0000000   0.0000000   0.0000000   0.0000000   0.0000000   0.0000000   0.0000000
 NMagM=    2.7928460   2.7928460   2.7928460   2.7928460   2.7928460   2.7928460   2.7928460   2.7928460   2.7928460   2.7928460
 AtZNuc=   1.0000000   1.0000000   1.0000000   1.0000000   1.0000000   1.0000000   1.0000000   1.0000000   1.0000000   1.0000000

  Atom        61          62          63          64          65          66          67          68          69          70
 IAtWgt=           1           1           1           1           1           1           1           1           1           1
 AtmWgt=   1.0078250   1.0078250   1.0078250   1.0078250   1.0078250   1.0078250   1.0078250   1.0078250   1.0078250   1.0078250
 NucSpn=           1           1           1           1           1           1           1           1           1           1
 AtZEff=  -0.0000000  -0.0000000  -0.0000000  -0.0000000  -0.0000000  -0.0000000  -0.0000000  -0.0000000  -0.0000000  -0.0000000
 NQMom=    0.0000000   0.0000000   0.0000000   0.0000000   0.0000000   0.0000000   0.0000000   0.0000000   0.0000000   0.0000000
 NMagM=    2.7928460   2.7928460   2.7928460   2.7928460   2.7928460   2.7928460   2.7928460   2.7928460   2.7928460   2.7928460
 AtZNuc=   1.0000000   1.0000000   1.0000000   1.0000000   1.0000000   1.0000000   1.0000000   1.0000000   1.0000000   1.0000000

  Atom        71          72          73          74          75          76          77          78          79          80
 IAtWgt=           1           1           1           1           1           1           1           1           1           1
 AtmWgt=   1.0078250   1.0078250   1.0078250   1.0078250   1.0078250   1.0078250   1.0078250   1.0078250   1.0078250   1.0078250
 NucSpn=           1           1           1           1           1           1           1           1           1           1
 AtZEff=  -0.0000000  -0.0000000  -0.0000000  -0.0000000  -0.0000000  -0.0000000  -0.0000000  -0.0000000  -0.0000000  -0.0000000
 NQMom=    0.0000000   0.0000000   0.0000000   0.0000000   0.0000000   0.0000000   0.0000000   0.0000000   0.0000000   0.0000000
 NMagM=    2.7928460   2.7928460   2.7928460   2.7928460   2.7928460   2.7928460   2.7928460   2.7928460   2.7928460   2.7928460
 AtZNuc=   1.0000000   1.0000000   1.0000000   1.0000000   1.0000000   1.0000000   1.0000000   1.0000000   1.0000000   1.0000000

  Atom        81          82          83          84          85
 IAtWgt=           1           1           1           1           1
 AtmWgt=   1.0078250   1.0078250   1.0078250   1.0078250   1.0078250
 NucSpn=           1           1           1           1           1
 AtZEff=  -0.0000000  -0.0000000  -0.0000000  -0.0000000  -0.0000000
 NQMom=    0.0000000   0.0000000   0.0000000   0.0000000   0.0000000
 NMagM=    2.7928460   2.7928460   2.7928460   2.7928460   2.7928460
 AtZNuc=   1.0000000   1.0000000   1.0000000   1.0000000   1.0000000
 Leave Link  101 at Thu Nov  6 01:26:02 2025, MaxMem= 30870077440 cpu:               5.8 elap:               0.1
 (Enter /public/software/gauss/g16/l202.exe)
 Stoichiometry    C40H39BF2N2O(1-,2)
 Framework group  C1[X(C40H39BF2N2O)]
 Deg. of freedom   249
 Full point group                 C1      NOp   1
 Largest Abelian subgroup         C1      NOp   1
 Largest concise Abelian subgroup C1      NOp   1
                         Standard orientation:                         
 ---------------------------------------------------------------------
 Center     Atomic      Atomic             Coordinates (Angstroms)
 Number     Number       Type             X           Y           Z
 ---------------------------------------------------------------------
      1          6           0        4.118243    2.051121    3.225832
      2          6           0        4.006120    2.108518    1.691623
      3          6           0        2.902257    1.238301    1.147691
      4          6           0        2.996873   -0.146534    0.890751
      5          6           0        4.255391   -0.950832    1.064192
      6          6           0        1.695005   -0.594791    0.518783
      7          6           0        1.194723   -1.876448    0.137567
      8          6           0        2.125566   -3.022948    0.005354
      9          6           0        3.109196   -3.041004   -1.008534
     10          6           0        3.978707   -4.111962   -1.141889
     11          6           0        3.902242   -5.200588   -0.252027
     12          6           0        4.813032   -6.339866   -0.365835
     13          8           0        5.690551   -6.459265   -1.222275
     14          6           0        2.931066   -5.190564    0.763918
     15          6           0        2.053261   -4.120364    0.886306
     16          6           0       -0.196366   -2.048344   -0.117290
     17          6           0       -0.942991   -3.170501   -0.597253
     18          6           0       -0.430591   -4.514081   -1.033106
     19          6           0       -2.291336   -2.776728   -0.665771
     20          6           0       -3.429718   -3.634055   -1.151208
     21          6           0       -4.043519   -4.532426   -0.063203
     22          6           0       -2.365998   -1.421026   -0.261647
     23          6           0       -3.479831   -0.510009   -0.203257
     24          6           0       -4.802476   -0.819958   -0.106691
     25          6           0       -5.908755    0.135030   -0.095281
     26          6           0       -5.752428    1.528791   -0.269227
     27          6           0       -6.847192    2.384917   -0.237171
     28          6           0       -8.153220    1.904335   -0.038549
     29          6           0       -9.334250    2.842419   -0.035668
     30          6           0       -8.314382    0.523031    0.132567
     31          6           0       -7.221155   -0.340584    0.104149
     32          7           0       -1.081618   -0.990309    0.046882
     33          5           0       -0.696578    0.430469    0.487592
     34          9           0       -1.302084    0.745136    1.732783
     35          9           0       -1.150810    1.386657   -0.454955
     36          7           0        0.832192    0.492068    0.607168
     37          6           0        1.557636    1.616556    0.962387
     38          6           0        0.878123    2.873404    1.252092
     39          6           0        1.188298    4.157424    0.939190
     40          6           0        2.195415    4.738185    0.043843
     41          6           0        2.898111    4.015591   -0.944228
     42          6           0        3.789581    4.651408   -1.801931
     43          6           0        4.033538    6.032413   -1.717356
     44          6           0        5.026734    6.702654   -2.633152
     45          6           0        3.330776    6.756293   -0.745239
     46          6           0        2.428428    6.126302    0.109781
     47          1           0        4.933319    2.690452    3.583386
     48          1           0        3.190220    2.393670    3.696082
     49          1           0        4.311803    1.031572    3.575624
     50          1           0        3.849670    3.146378    1.390523
     51          1           0        4.963955    1.807547    1.251278
     52          1           0        4.752643   -1.180798    0.113880
     53          1           0        4.974749   -0.401506    1.677382
     54          1           0        4.067177   -1.907702    1.559118
     55          1           0        3.168280   -2.206186   -1.699796
     56          1           0        4.721186   -4.126256   -1.933743
     57          1           0        4.667769   -7.131164    0.394963
     58          1           0        2.876246   -6.025730    1.457650
     59          1           0        1.309756   -4.116860    1.676979
     60          1           0        0.496494   -4.434434   -1.607162
     61          1           0       -0.223629   -5.186666   -0.192022
     62          1           0       -1.168133   -5.013476   -1.667814
     63          1           0       -4.211028   -2.998512   -1.580392
     64          1           0       -3.077835   -4.274072   -1.969078
     65          1           0       -4.866583   -5.131437   -0.468442
     66          1           0       -3.295241   -5.220802    0.344075
     67          1           0       -4.435615   -3.940411    0.770682
     68          1           0       -3.202624    0.539034   -0.235837
     69          1           0       -5.104275   -1.857734   -0.000193
     70          1           0       -4.764188    1.947925   -0.432582
     71          1           0       -6.689470    3.452547   -0.372138
     72          1           0       -9.602807    3.148614   -1.054921
     73          1           0      -10.216228    2.371504    0.407769
     74          1           0       -9.117015    3.758156    0.524344
     75          1           0       -9.310829    0.117841    0.291366
     76          1           0       -7.378587   -1.407468    0.242858
     77          1           0       -0.040430    2.745867    1.822795
     78          1           0        0.541048    4.908119    1.391356
     79          1           0        2.731827    2.948863   -1.046552
     80          1           0        4.306388    4.066003   -2.558815
     81          1           0        4.941156    6.328069   -3.658525
     82          1           0        4.884619    7.786901   -2.650928
     83          1           0        6.057510    6.511275   -2.308594
     84          1           0        3.487247    7.828881   -0.661139
     85          1           0        1.887291    6.716868    0.844944
 ---------------------------------------------------------------------
 Rotational constants (GHZ):           0.0609400           0.0467706           0.0285990
 Leave Link  202 at Thu Nov  6 01:26:02 2025, MaxMem= 30870077440 cpu:               0.2 elap:               0.0
 (Enter /public/software/gauss/g16/l301.exe)
 Standard basis: def2TZVPP (5D, 7F)
 Ernie: Thresh=  0.10000D-02 Tol=  0.10000D-05 Strict=F.
 There are  2241 symmetry adapted cartesian basis functions of A   symmetry.
 There are  1972 symmetry adapted basis functions of A   symmetry.
  1972 basis functions,  3009 primitive gaussians,  2241 cartesian basis functions
   163 alpha electrons      162 beta electrons
       nuclear repulsion energy      5308.0049846492 Hartrees.
 IExCor= 4336 DFT=T Ex+Corr=M062X ExCW=0 ScaHFX=  0.540000
 ScaDFX=  1.000000  1.000000  1.000000  1.000000 ScalE2=  1.000000  1.000000
 IRadAn=      5 IRanWt=     -1 IRanGd=            0 ICorTp=0 IEmpDi=131
 NAtoms=   85 NActive=   85 NUniq=   85 SFac= 1.00D+00 NAtFMM=   60 NAOKFM=T Big=T
 Integral buffers will be    131072 words long.
 Raffenetti 2 integral format.
 Two-electron integral symmetry is turned on.
 R6Disp:  Grimme-D3 Dispersion energy=       -0.0077727124 Hartrees.
 Nuclear repulsion after empirical dispersion term =     5307.9972119367 Hartrees.
 ------------------------------------------------------------------------------
 Polarizable Continuum Model (PCM)
 =================================
 Model                : PCM.
 Atomic radii         : UFF (Universal Force Field).
 Polarization charges : Total charges.
 Charge compensation  : None.
 Solution method      : On-the-fly selection.
 Cavity type          : Scaled VdW (van der Waals Surface) (Alpha=1.100).
 Cavity algorithm     : GePol (No added spheres)
                        Default sphere list used, NSphG=   85.
                        Lebedev-Laikov grids with approx.  5.0 points / Ang**2.
                        Smoothing algorithm: York/Karplus (Gamma=1.0000).
                        Polarization charges: spherical gaussians, with
                                              point-specific exponents (IZeta= 3).
                        Self-potential: point-specific (ISelfS= 7).
                        Self-field    : sphere-specific E.n sum rule (ISelfD= 2).
 Solvent              : Water, Eps=  78.355300 Eps(inf)=   1.777849
 ------------------------------------------------------------------------------
 GePol: Number of generator spheres                  =      85
 GePol: Total number of spheres                      =      85
 GePol: Number of exposed spheres                    =      85 (100.00%)
 GePol: Number of points                             =    5814
 GePol: Average weight of points                     =       0.13
 GePol: Minimum weight of points                     =   0.24D-10
 GePol: Maximum weight of points                     =    0.20577
 GePol: Number of points with low weight             =     395
 GePol: Fraction of low-weight points (<1% of avg)   =       6.79%
 GePol: Cavity surface area                          =    737.157 Ang**2
 GePol: Cavity volume                                =    861.888 Ang**3
 Leave Link  301 at Thu Nov  6 01:26:02 2025, MaxMem= 30870077440 cpu:               3.7 elap:               0.1
 (Enter /public/software/gauss/g16/l302.exe)
 NPDir=0 NMtPBC=     1 NCelOv=     1 NCel=       1 NClECP=     1 NCelD=      1
         NCelK=      1 NCelE2=     1 NClLst=     1 CellRange=     0.0.
 One-electron integrals computed using PRISM.
 One-electron integral symmetry used in STVInt
   1 Symmetry operations used in ECPInt.
 ECPInt:  NShTT=  274170 NPrTT=  760657 LenC2=  176452 LenP2D=  332570.
 LDataN:  DoStor=T MaxTD1= 6 Len=  172
 NBasis=  1972 RedAO= T EigKep=  3.50D-06  NBF=  1972
 NBsUse=  1972 1.00D-06 EigRej= -1.00D+00 NBFU=  1972
 Precomputing XC quadrature grid using
 IXCGrd= 4 IRadAn=           5 IRanWt=          -1 IRanGd=           0 AccXCQ= 0.00D+00.
 Generated NRdTot=       0 NPtTot=           0 NUsed=           0 NTot=          32
 NSgBfM=  2045  2040  2040  2044  2045 MxSgAt=    85 MxSgA2=    85.
 Leave Link  302 at Thu Nov  6 01:26:13 2025, MaxMem= 30870077440 cpu:             696.7 elap:              10.9
 (Enter /public/software/gauss/g16/l303.exe)
 DipDrv:  MaxL=1.
 Leave Link  303 at Thu Nov  6 01:26:14 2025, MaxMem= 30870077440 cpu:              33.8 elap:               0.6
 (Enter /public/software/gauss/g16/l401.exe)
 ExpMin= 6.06D-02 ExpMax= 3.55D+04 ExpMxC= 1.21D+03 IAcc=3 IRadAn=         5 AccDes= 0.00D+00
 Harris functional with IExCor= 1009 and IRadAn=       5 diagonalized for initial guess.
 HarFok:  IExCor= 1009 AccDes= 0.00D+00 IRadAn=         5 IDoV= 1 UseB2=F ITyADJ=14
 ICtDFT=  3500011 ScaDFX=  1.000000  1.000000  1.000000  1.000000
 FoFCou: FMM=F IPFlag=           0 FMFlag=      100000 FMFlg1=        2001
         NFxFlg=           0 DoJE=T BraDBF=F KetDBF=T FulRan=T
         wScrn=  0.000000 ICntrl=       500 IOpCl=  0 I1Cent=   200000004 NGrid=           0
         NMat0=    1 NMatS0=      1 NMatT0=    0 NMatD0=    1 NMtDS0=    0 NMtDT0=    0
 Petite list used in FoFCou.
 Harris En= -1956.47760020835    
 JPrj=0 DoOrth=F DoCkMO=F.
 Initial guess <Sx>= 0.0000 <Sy>= 0.0000 <Sz>= 0.5000 <S**2>= 0.7500 S= 0.5000
 Leave Link  401 at Thu Nov  6 01:26:27 2025, MaxMem= 30870077440 cpu:             805.1 elap:              12.7
 (Enter /public/software/gauss/g16/l502.exe)
 Integral symmetry usage will be decided dynamically.
 UHF open shell SCF:
 Using DIIS extrapolation, IDIIS=  1040.
 NGot= 30870077440 LenX= 30859870889 LenY= 30854846567
 Requested convergence on RMS density matrix=1.00D-08 within 128 cycles.
 Requested convergence on MAX density matrix=1.00D-06.
 Requested convergence on             energy=1.00D-06.
 No special actions if energy rises.
 Fock matrices will be formed incrementally for  20 cycles.

 Cycle   1  Pass 1  IDiag  1:
 FoFJK:  IHMeth= 1 ICntrl=       0 DoSepK=F KAlg= 0 I1Cent=           0 FoldK=F
 IRaf= 610000000 NMat=       1 IRICut=       1 DoRegI=T DoRafI=F ISym2E= 0 IDoP0=0 IntGTp=1.
 FoFCou: FMM=T IPFlag=           0 FMFlag=      100000 FMFlg1=        2001
         NFxFlg=           0 DoJE=F BraDBF=F KetDBF=F FulRan=T
         wScrn=  0.000000 ICntrl=         0 IOpCl=  1 I1Cent=           0 NGrid=           0
         NMat0=    1 NMatS0=      1 NMatT0=    0 NMatD0=    1 NMtDS0=    0 NMtDT0=    0
 Symmetry not used in FoFCou.
 FMM levels:  10  Number of levels for PrismC:   9
 Inv3:  Mode=1 IEnd=   101407788.
 Iteration    1 A*A^-1 deviation from unit magnitude is 1.71D-14 for    325.
 Iteration    1 A*A^-1 deviation from orthogonality  is 5.43D-15 for   5338    255.
 Iteration    1 A^-1*A deviation from unit magnitude is 1.62D-14 for    325.
 Iteration    1 A^-1*A deviation from orthogonality  is 4.19D-14 for   5486   5318.
 E= -1956.09275695226    
 DIIS: error= 1.93D-02 at cycle   1 NSaved=   1.
 NSaved= 1 IEnMin= 1 EnMin= -1956.09275695226     IErMin= 1 ErrMin= 1.93D-02
 ErrMax= 1.93D-02  0.00D+00 EMaxC= 1.00D-01 BMatC= 5.66D+00 BMatP= 5.66D+00
 IDIUse=3 WtCom= 8.07D-01 WtEn= 1.93D-01
 Coeff-Com:  0.100D+01
 Coeff-En:   0.100D+01
 Coeff:      0.100D+01
 Gap=     0.112 Goal=   None    Shift=    0.000
 Gap=     0.139 Goal=   None    Shift=    0.000
 GapD=    0.112 DampG=1.000 DampE=0.500 DampFc=0.5000 IDamp=-1.
 Damping current iteration by 5.00D-01
 RMSDP=1.64D-03 MaxDP=5.69D-01              OVMax= 1.84D-01

 Cycle   2  Pass 1  IDiag  1:
 RMSU=  8.21D-04    CP:  9.92D-01
 E= -1956.71361026269     Delta-E=       -0.620853310435 Rises=F Damp=T
 DIIS: error= 3.98D-03 at cycle   2 NSaved=   2.
 NSaved= 2 IEnMin= 2 EnMin= -1956.71361026269     IErMin= 2 ErrMin= 3.98D-03
 ErrMax= 3.98D-03  0.00D+00 EMaxC= 1.00D-01 BMatC= 4.89D-01 BMatP= 5.66D+00
 IDIUse=3 WtCom= 9.60D-01 WtEn= 3.98D-02
 Coeff-Com: -0.163D+00 0.116D+01
 Coeff-En:   0.000D+00 0.100D+01
 Coeff:     -0.156D+00 0.116D+01
 Gap=     0.109 Goal=   None    Shift=    0.000
 Gap=     0.148 Goal=   None    Shift=    0.000
 RMSDP=6.94D-04 MaxDP=1.35D-01 DE=-6.21D-01 OVMax= 1.01D-01

 Cycle   3  Pass 1  IDiag  1:
 RMSU=  6.84D-04    CP:  9.77D-01  1.13D+00
 E= -1957.24845169264     Delta-E=       -0.534841429944 Rises=F Damp=F
 DIIS: error= 2.78D-03 at cycle   3 NSaved=   3.
 NSaved= 3 IEnMin= 3 EnMin= -1957.24845169264     IErMin= 3 ErrMin= 2.78D-03
 ErrMax= 2.78D-03  0.00D+00 EMaxC= 1.00D-01 BMatC= 1.89D-01 BMatP= 4.89D-01
 IDIUse=3 WtCom= 9.72D-01 WtEn= 2.78D-02
 Coeff-Com: -0.123D+00 0.480D+00 0.643D+00
 Coeff-En:   0.000D+00 0.000D+00 0.100D+01
 Coeff:     -0.120D+00 0.467D+00 0.653D+00
 Gap=     0.122 Goal=   None    Shift=    0.000
 Gap=     0.145 Goal=   None    Shift=    0.000
 RMSDP=1.99D-04 MaxDP=7.12D-02 DE=-5.35D-01 OVMax= 6.55D-02

 Cycle   4  Pass 1  IDiag  1:
 RMSU=  1.75D-04    CP:  9.79D-01  1.21D+00  9.01D-01
 E= -1957.27978293273     Delta-E=       -0.031331240097 Rises=F Damp=F
 DIIS: error= 1.50D-03 at cycle   4 NSaved=   4.
 NSaved= 4 IEnMin= 4 EnMin= -1957.27978293273     IErMin= 4 ErrMin= 1.50D-03
 ErrMax= 1.50D-03  0.00D+00 EMaxC= 1.00D-01 BMatC= 4.29D-02 BMatP= 1.89D-01
 IDIUse=3 WtCom= 9.85D-01 WtEn= 1.50D-02
 Coeff-Com: -0.416D-01 0.107D+00 0.356D+00 0.578D+00
 Coeff-En:   0.000D+00 0.000D+00 0.165D+00 0.835D+00
 Coeff:     -0.410D-01 0.105D+00 0.353D+00 0.582D+00
 Gap=     0.121 Goal=   None    Shift=    0.000
 Gap=     0.147 Goal=   None    Shift=    0.000
 RMSDP=8.21D-05 MaxDP=3.81D-02 DE=-3.13D-02 OVMax= 1.90D-02

 Cycle   5  Pass 1  IDiag  1:
 RMSU=  5.95D-05    CP:  9.77D-01  1.18D+00  9.38D-01  7.53D-01
 E= -1957.28872531249     Delta-E=       -0.008942379756 Rises=F Damp=F
 DIIS: error= 2.26D-04 at cycle   5 NSaved=   5.
 NSaved= 5 IEnMin= 5 EnMin= -1957.28872531249     IErMin= 5 ErrMin= 2.26D-04
 ErrMax= 2.26D-04  0.00D+00 EMaxC= 1.00D-01 BMatC= 1.22D-03 BMatP= 4.29D-02
 IDIUse=3 WtCom= 9.98D-01 WtEn= 2.26D-03
 Coeff-Com: -0.101D-01 0.193D-01 0.111D+00 0.232D+00 0.647D+00
 Coeff-En:   0.000D+00 0.000D+00 0.000D+00 0.000D+00 0.100D+01
 Coeff:     -0.101D-01 0.192D-01 0.111D+00 0.232D+00 0.648D+00
 Gap=     0.122 Goal=   None    Shift=    0.000
 Gap=     0.148 Goal=   None    Shift=    0.000
 RMSDP=2.22D-05 MaxDP=9.67D-03 DE=-8.94D-03 OVMax= 8.76D-03

 Cycle   6  Pass 1  IDiag  1:
 RMSU=  2.02D-05    CP:  9.77D-01  1.18D+00  9.40D-01  7.66D-01  1.13D+00
 E= -1957.28908863134     Delta-E=       -0.000363318848 Rises=F Damp=F
 DIIS: error= 1.05D-04 at cycle   6 NSaved=   6.
 NSaved= 6 IEnMin= 6 EnMin= -1957.28908863134     IErMin= 6 ErrMin= 1.05D-04
 ErrMax= 1.05D-04  0.00D+00 EMaxC= 1.00D-01 BMatC= 1.42D-04 BMatP= 1.22D-03
 IDIUse=3 WtCom= 9.99D-01 WtEn= 1.05D-03
 Coeff-Com:  0.151D-02-0.537D-02-0.551D-02 0.223D-02 0.193D+00 0.815D+00
 Coeff-En:   0.000D+00 0.000D+00 0.000D+00 0.000D+00 0.000D+00 0.100D+01
 Coeff:      0.151D-02-0.537D-02-0.551D-02 0.223D-02 0.192D+00 0.815D+00
 Gap=     0.124 Goal=   None    Shift=    0.000
 Gap=     0.149 Goal=   None    Shift=    0.000
 RMSDP=1.86D-05 MaxDP=7.62D-03 DE=-3.63D-04 OVMax= 1.05D-02

 Cycle   7  Pass 1  IDiag  1:
 RMSU=  1.09D-05    CP:  9.77D-01  1.18D+00  9.44D-01  7.85D-01  1.34D+00
                    CP:  1.38D+00
 E= -1957.28920134349     Delta-E=       -0.000112712151 Rises=F Damp=F
 DIIS: error= 5.31D-05 at cycle   7 NSaved=   7.
 NSaved= 7 IEnMin= 7 EnMin= -1957.28920134349     IErMin= 7 ErrMin= 5.31D-05
 ErrMax= 5.31D-05  0.00D+00 EMaxC= 1.00D-01 BMatC= 4.00D-05 BMatP= 1.42D-04
 IDIUse=1 WtCom= 1.00D+00 WtEn= 0.00D+00
 Coeff-Com:  0.296D-02-0.625D-02-0.297D-01-0.614D-01-0.131D+00 0.192D+00
 Coeff-Com:  0.103D+01
 Coeff:      0.296D-02-0.625D-02-0.297D-01-0.614D-01-0.131D+00 0.192D+00
 Coeff:      0.103D+01
 Gap=     0.125 Goal=   None    Shift=    0.000
 Gap=     0.150 Goal=   None    Shift=    0.000
 RMSDP=1.62D-05 MaxDP=6.55D-03 DE=-1.13D-04 OVMax= 8.82D-03

 Cycle   8  Pass 1  IDiag  1:
 RMSU=  4.80D-06    CP:  9.77D-01  1.18D+00  9.48D-01  8.01D-01  1.50D+00
                    CP:  1.85D+00  1.56D+00
 E= -1957.28925549338     Delta-E=       -0.000054149893 Rises=F Damp=F
 DIIS: error= 2.72D-05 at cycle   8 NSaved=   8.
 NSaved= 8 IEnMin= 8 EnMin= -1957.28925549338     IErMin= 8 ErrMin= 2.72D-05
 ErrMax= 2.72D-05  0.00D+00 EMaxC= 1.00D-01 BMatC= 1.18D-05 BMatP= 4.00D-05
 IDIUse=1 WtCom= 1.00D+00 WtEn= 0.00D+00
 Coeff-Com:  0.725D-03-0.102D-02-0.967D-02-0.250D-01-0.104D+00-0.131D+00
 Coeff-Com:  0.394D+00 0.877D+00
 Coeff:      0.725D-03-0.102D-02-0.967D-02-0.250D-01-0.104D+00-0.131D+00
 Coeff:      0.394D+00 0.877D+00
 Gap=     0.125 Goal=   None    Shift=    0.000
 Gap=     0.151 Goal=   None    Shift=    0.000
 RMSDP=8.48D-06 MaxDP=3.48D-03 DE=-5.41D-05 OVMax= 4.55D-03

 Cycle   9  Pass 1  IDiag  1:
 RMSU=  1.92D-06    CP:  9.77D-01  1.18D+00  9.50D-01  8.08D-01  1.58D+00
                    CP:  2.08D+00  1.94D+00  1.54D+00
 E= -1957.28926840755     Delta-E=       -0.000012914172 Rises=F Damp=F
 DIIS: error= 1.21D-05 at cycle   9 NSaved=   9.
 NSaved= 9 IEnMin= 9 EnMin= -1957.28926840755     IErMin= 9 ErrMin= 1.21D-05
 ErrMax= 1.21D-05  0.00D+00 EMaxC= 1.00D-01 BMatC= 3.12D-06 BMatP= 1.18D-05
 IDIUse=1 WtCom= 1.00D+00 WtEn= 0.00D+00
 Coeff-Com: -0.537D-03 0.138D-02 0.421D-02 0.624D-02-0.889D-02-0.104D+00
 Coeff-Com: -0.112D+00 0.392D+00 0.822D+00
 Coeff:     -0.537D-03 0.138D-02 0.421D-02 0.624D-02-0.889D-02-0.104D+00
 Coeff:     -0.112D+00 0.392D+00 0.822D+00
 Gap=     0.126 Goal=   None    Shift=    0.000
 Gap=     0.151 Goal=   None    Shift=    0.000
 RMSDP=3.49D-06 MaxDP=1.18D-03 DE=-1.29D-05 OVMax= 1.87D-03

 Cycle  10  Pass 1  IDiag  1:
 RMSU=  1.05D-06    CP:  9.77D-01  1.18D+00  9.50D-01  8.10D-01  1.60D+00
                    CP:  2.17D+00  2.10D+00  1.84D+00  1.32D+00
 E= -1957.28927082373     Delta-E=       -0.000002416173 Rises=F Damp=F
 DIIS: error= 4.63D-06 at cycle  10 NSaved=  10.
 NSaved=10 IEnMin=10 EnMin= -1957.28927082373     IErMin=10 ErrMin= 4.63D-06
 ErrMax= 4.63D-06  0.00D+00 EMaxC= 1.00D-01 BMatC= 4.65D-07 BMatP= 3.12D-06
 IDIUse=1 WtCom= 1.00D+00 WtEn= 0.00D+00
 Coeff-Com: -0.332D-03 0.726D-03 0.329D-02 0.676D-02 0.129D-01-0.227D-01
 Coeff-Com: -0.107D+00 0.201D-01 0.312D+00 0.774D+00
 Coeff:     -0.332D-03 0.726D-03 0.329D-02 0.676D-02 0.129D-01-0.227D-01
 Coeff:     -0.107D+00 0.201D-01 0.312D+00 0.774D+00
 Gap=     0.126 Goal=   None    Shift=    0.000
 Gap=     0.151 Goal=   None    Shift=    0.000
 RMSDP=1.00D-06 MaxDP=2.40D-04 DE=-2.42D-06 OVMax= 6.44D-04

 Cycle  11  Pass 1  IDiag  1:
 RMSU=  4.44D-07    CP:  9.77D-01  1.18D+00  9.50D-01  8.11D-01  1.61D+00
                    CP:  2.18D+00  2.14D+00  1.94D+00  1.51D+00  1.15D+00
 E= -1957.28927120269     Delta-E=       -0.000000378964 Rises=F Damp=F
 DIIS: error= 3.48D-06 at cycle  11 NSaved=  11.
 NSaved=11 IEnMin=11 EnMin= -1957.28927120269     IErMin=11 ErrMin= 3.48D-06
 ErrMax= 3.48D-06  0.00D+00 EMaxC= 1.00D-01 BMatC= 1.30D-07 BMatP= 4.65D-07
 IDIUse=1 WtCom= 1.00D+00 WtEn= 0.00D+00
 Coeff-Com: -0.239D-04 0.231D-04 0.453D-03 0.135D-02 0.612D-02 0.755D-02
 Coeff-Com: -0.193D-01-0.535D-01-0.292D-01 0.328D+00 0.759D+00
 Coeff:     -0.239D-04 0.231D-04 0.453D-03 0.135D-02 0.612D-02 0.755D-02
 Coeff:     -0.193D-01-0.535D-01-0.292D-01 0.328D+00 0.759D+00
 Gap=     0.126 Goal=   None    Shift=    0.000
 Gap=     0.151 Goal=   None    Shift=    0.000
 RMSDP=4.04D-07 MaxDP=1.10D-04 DE=-3.79D-07 OVMax= 3.44D-04

 Cycle  12  Pass 1  IDiag  1:
 RMSU=  1.95D-07    CP:  9.77D-01  1.18D+00  9.50D-01  8.11D-01  1.61D+00
                    CP:  2.19D+00  2.14D+00  1.97D+00  1.58D+00  1.33D+00
                    CP:  1.39D+00
 E= -1957.28927132632     Delta-E=       -0.000000123629 Rises=F Damp=F
 DIIS: error= 2.28D-06 at cycle  12 NSaved=  12.
 NSaved=12 IEnMin=12 EnMin= -1957.28927132632     IErMin=12 ErrMin= 2.28D-06
 ErrMax= 2.28D-06  0.00D+00 EMaxC= 1.00D-01 BMatC= 3.64D-08 BMatP= 1.30D-07
 IDIUse=1 WtCom= 1.00D+00 WtEn= 0.00D+00
 Coeff-Com:  0.931D-04-0.211D-03-0.814D-03-0.157D-02-0.134D-02 0.866D-02
 Coeff-Com:  0.253D-01-0.242D-01-0.112D+00-0.876D-01 0.264D+00 0.930D+00
 Coeff:      0.931D-04-0.211D-03-0.814D-03-0.157D-02-0.134D-02 0.866D-02
 Coeff:      0.253D-01-0.242D-01-0.112D+00-0.876D-01 0.264D+00 0.930D+00
 Gap=     0.126 Goal=   None    Shift=    0.000
 Gap=     0.151 Goal=   None    Shift=    0.000
 RMSDP=3.23D-07 MaxDP=6.24D-05 DE=-1.24D-07 OVMax= 3.05D-04

 Cycle  13  Pass 1  IDiag  1:
 RMSU=  1.19D-07    CP:  9.77D-01  1.18D+00  9.50D-01  8.11D-01  1.61D+00
                    CP:  2.19D+00  2.15D+00  1.98D+00  1.62D+00  1.47D+00
                    CP:  1.80D+00  1.70D+00
 E= -1957.28927139239     Delta-E=       -0.000000066068 Rises=F Damp=F
 DIIS: error= 1.61D-06 at cycle  13 NSaved=  13.
 NSaved=13 IEnMin=13 EnMin= -1957.28927139239     IErMin=13 ErrMin= 1.61D-06
 ErrMax= 1.61D-06  0.00D+00 EMaxC= 1.00D-01 BMatC= 1.28D-08 BMatP= 3.64D-08
 IDIUse=1 WtCom= 1.00D+00 WtEn= 0.00D+00
 Coeff-Com:  0.319D-04-0.641D-04-0.366D-03-0.914D-03-0.217D-02-0.521D-03
 Coeff-Com:  0.134D-01 0.112D-01-0.261D-01-0.125D+00-0.184D+00 0.292D+00
 Coeff-Com:  0.102D+01
 Coeff:      0.319D-04-0.641D-04-0.366D-03-0.914D-03-0.217D-02-0.521D-03
 Coeff:      0.134D-01 0.112D-01-0.261D-01-0.125D+00-0.184D+00 0.292D+00
 Coeff:      0.102D+01
 Gap=     0.126 Goal=   None    Shift=    0.000
 Gap=     0.151 Goal=   None    Shift=    0.000
 RMSDP=2.45D-07 MaxDP=6.90D-05 DE=-6.61D-08 OVMax= 2.15D-04

 Cycle  14  Pass 1  IDiag  1:
 RMSU=  7.18D-08    CP:  9.77D-01  1.18D+00  9.50D-01  8.11D-01  1.61D+00
                    CP:  2.19D+00  2.15D+00  1.99D+00  1.65D+00  1.54D+00
                    CP:  2.08D+00  2.41D+00  1.66D+00
 E= -1957.28927142014     Delta-E=       -0.000000027758 Rises=F Damp=F
 DIIS: error= 7.82D-07 at cycle  14 NSaved=  14.
 NSaved=14 IEnMin=14 EnMin= -1957.28927142014     IErMin=14 ErrMin= 7.82D-07
 ErrMax= 7.82D-07  0.00D+00 EMaxC= 1.00D-01 BMatC= 4.07D-09 BMatP= 1.28D-08
 IDIUse=1 WtCom= 1.00D+00 WtEn= 0.00D+00
 Coeff-Com: -0.245D-04 0.578D-04 0.181D-03 0.260D-03-0.234D-03-0.356D-02
 Coeff-Com: -0.512D-02 0.128D-01 0.321D-01-0.516D-02-0.157D+00-0.264D+00
 Coeff-Com:  0.328D+00 0.106D+01
 Coeff:     -0.245D-04 0.578D-04 0.181D-03 0.260D-03-0.234D-03-0.356D-02
 Coeff:     -0.512D-02 0.128D-01 0.321D-01-0.516D-02-0.157D+00-0.264D+00
 Coeff:      0.328D+00 0.106D+01
 Gap=     0.126 Goal=   None    Shift=    0.000
 Gap=     0.151 Goal=   None    Shift=    0.000
 RMSDP=1.78D-07 MaxDP=6.31D-05 DE=-2.78D-08 OVMax= 1.17D-04

 Cycle  15  Pass 1  IDiag  1:
 RMSU=  4.23D-08    CP:  9.77D-01  1.18D+00  9.50D-01  8.11D-01  1.61D+00
                    CP:  2.20D+00  2.15D+00  2.00D+00  1.66D+00  1.58D+00
                    CP:  2.24D+00  2.88D+00  2.35D+00  1.63D+00
 E= -1957.28927142866     Delta-E=       -0.000000008516 Rises=F Damp=F
 DIIS: error= 4.21D-07 at cycle  15 NSaved=  15.
 NSaved=15 IEnMin=15 EnMin= -1957.28927142866     IErMin=15 ErrMin= 4.21D-07
 ErrMax= 4.21D-07  0.00D+00 EMaxC= 1.00D-01 BMatC= 1.07D-09 BMatP= 4.07D-09
 IDIUse=1 WtCom= 1.00D+00 WtEn= 0.00D+00
 Coeff-Com: -0.155D-04 0.343D-04 0.153D-03 0.317D-03 0.461D-03-0.103D-02
 Coeff-Com: -0.523D-02 0.112D-02 0.172D-01 0.335D-01 0.458D-02-0.166D+00
 Coeff-Com: -0.169D+00 0.371D+00 0.913D+00
 Coeff:     -0.155D-04 0.343D-04 0.153D-03 0.317D-03 0.461D-03-0.103D-02
 Coeff:     -0.523D-02 0.112D-02 0.172D-01 0.335D-01 0.458D-02-0.166D+00
 Coeff:     -0.169D+00 0.371D+00 0.913D+00
 Gap=     0.126 Goal=   None    Shift=    0.000
 Gap=     0.151 Goal=   None    Shift=    0.000
 RMSDP=6.85D-08 MaxDP=2.01D-05 DE=-8.52D-09 OVMax= 3.37D-05

 Cycle  16  Pass 1  IDiag  1:
 RMSU=  2.43D-08    CP:  9.77D-01  1.18D+00  9.50D-01  8.11D-01  1.61D+00
                    CP:  2.20D+00  2.16D+00  2.00D+00  1.66D+00  1.59D+00
                    CP:  2.28D+00  3.00D+00  2.59D+00  2.09D+00  1.34D+00
 E= -1957.28927143010     Delta-E=       -0.000000001436 Rises=F Damp=F
 DIIS: error= 2.20D-07 at cycle  16 NSaved=  16.
 NSaved=16 IEnMin=16 EnMin= -1957.28927143010     IErMin=16 ErrMin= 2.20D-07
 ErrMax= 2.20D-07  0.00D+00 EMaxC= 1.00D-01 BMatC= 3.17D-10 BMatP= 1.07D-09
 IDIUse=1 WtCom= 1.00D+00 WtEn= 0.00D+00
 Coeff-Com: -0.497D-06 0.427D-06 0.234D-04 0.779D-04 0.256D-03 0.452D-03
 Coeff-Com: -0.109D-02-0.287D-02-0.462D-03 0.165D-01 0.444D-01-0.776D-02
 Coeff-Com: -0.165D+00-0.985D-01 0.408D+00 0.805D+00
 Coeff:     -0.497D-06 0.427D-06 0.234D-04 0.779D-04 0.256D-03 0.452D-03
 Coeff:     -0.109D-02-0.287D-02-0.462D-03 0.165D-01 0.444D-01-0.776D-02
 Coeff:     -0.165D+00-0.985D-01 0.408D+00 0.805D+00
 Gap=     0.126 Goal=   None    Shift=    0.000
 Gap=     0.151 Goal=   None    Shift=    0.000
 RMSDP=3.08D-08 MaxDP=1.35D-05 DE=-1.44D-09 OVMax= 1.53D-05

 Cycle  17  Pass 1  IDiag  1:
 RMSU=  1.45D-08    CP:  9.77D-01  1.18D+00  9.50D-01  8.11D-01  1.61D+00
                    CP:  2.20D+00  2.16D+00  2.00D+00  1.66D+00  1.59D+00
                    CP:  2.28D+00  3.00D+00  2.68D+00  2.23D+00  1.70D+00
                    CP:  1.38D+00
 E= -1957.28927143100     Delta-E=       -0.000000000906 Rises=F Damp=F
 DIIS: error= 9.94D-08 at cycle  17 NSaved=  17.
 NSaved=17 IEnMin=17 EnMin= -1957.28927143100     IErMin=17 ErrMin= 9.94D-08
 ErrMax= 9.94D-08  0.00D+00 EMaxC= 1.00D-01 BMatC= 8.10D-11 BMatP= 3.17D-10
 IDIUse=1 WtCom= 1.00D+00 WtEn= 0.00D+00
 Coeff-Com:  0.344D-05-0.775D-05-0.265D-04-0.413D-04-0.115D-04 0.424D-03
 Coeff-Com:  0.804D-03-0.133D-02-0.421D-02-0.176D-02 0.172D-01 0.377D-01
 Coeff-Com: -0.237D-01-0.131D+00-0.798D-01 0.342D+00 0.843D+00
 Coeff:      0.344D-05-0.775D-05-0.265D-04-0.413D-04-0.115D-04 0.424D-03
 Coeff:      0.804D-03-0.133D-02-0.421D-02-0.176D-02 0.172D-01 0.377D-01
 Coeff:     -0.237D-01-0.131D+00-0.798D-01 0.342D+00 0.843D+00
 Gap=     0.126 Goal=   None    Shift=    0.000
 Gap=     0.151 Goal=   None    Shift=    0.000
 RMSDP=1.47D-08 MaxDP=3.52D-06 DE=-9.06D-10 OVMax= 7.58D-06

 Cycle  18  Pass 1  IDiag  1:
 RMSU=  6.98D-09    CP:  9.77D-01  1.18D+00  9.50D-01  8.11D-01  1.61D+00
                    CP:  2.20D+00  2.16D+00  2.00D+00  1.66D+00  1.59D+00
                    CP:  2.28D+00  3.00D+00  2.69D+00  2.32D+00  1.82D+00
                    CP:  1.75D+00  1.06D+00
 E= -1957.28927143102     Delta-E=       -0.000000000020 Rises=F Damp=F
 DIIS: error= 4.53D-08 at cycle  18 NSaved=  18.
 NSaved=18 IEnMin=18 EnMin= -1957.28927143102     IErMin=18 ErrMin= 4.53D-08
 ErrMax= 4.53D-08  0.00D+00 EMaxC= 1.00D-01 BMatC= 2.11D-11 BMatP= 8.10D-11
 IDIUse=1 WtCom= 1.00D+00 WtEn= 0.00D+00
 Coeff-Com:  0.153D-05-0.341D-05-0.161D-04-0.320D-04-0.516D-04 0.109D-03
 Coeff-Com:  0.561D-03 0.921D-05-0.173D-02-0.417D-02-0.126D-02 0.176D-01
 Coeff-Com:  0.228D-01-0.346D-01-0.119D+00-0.203D-01 0.372D+00 0.768D+00
 Coeff:      0.153D-05-0.341D-05-0.161D-04-0.320D-04-0.516D-04 0.109D-03
 Coeff:      0.561D-03 0.921D-05-0.173D-02-0.417D-02-0.126D-02 0.176D-01
 Coeff:      0.228D-01-0.346D-01-0.119D+00-0.203D-01 0.372D+00 0.768D+00
 Gap=     0.126 Goal=   None    Shift=    0.000
 Gap=     0.151 Goal=   None    Shift=    0.000
 RMSDP=6.76D-09 MaxDP=1.28D-06 DE=-2.00D-11 OVMax= 3.98D-06

 Cycle  19  Pass 1  IDiag  1:
 RMSU=  3.01D-09    CP:  9.77D-01  1.18D+00  9.50D-01  8.11D-01  1.61D+00
                    CP:  2.20D+00  2.16D+00  2.00D+00  1.66D+00  1.59D+00
                    CP:  2.28D+00  3.00D+00  2.69D+00  2.33D+00  1.88D+00
                    CP:  1.86D+00  1.27D+00  1.39D+00
 E= -1957.28927143135     Delta-E=       -0.000000000324 Rises=F Damp=F
 DIIS: error= 2.68D-08 at cycle  19 NSaved=  19.
 NSaved=19 IEnMin=19 EnMin= -1957.28927143135     IErMin=19 ErrMin= 2.68D-08
 ErrMax= 2.68D-08  0.00D+00 EMaxC= 1.00D-01 BMatC= 5.70D-12 BMatP= 2.11D-11
 IDIUse=1 WtCom= 1.00D+00 WtEn= 0.00D+00
 Coeff-Com: -0.624D-06 0.136D-05 0.267D-05 0.255D-05-0.151D-04-0.983D-04
 Coeff-Com: -0.585D-04 0.479D-03 0.703D-03-0.101D-02-0.619D-02-0.526D-02
 Coeff-Com:  0.161D-01 0.305D-01-0.208D-01-0.129D+00-0.125D+00 0.305D+00
 Coeff-Com:  0.935D+00
 Coeff:     -0.624D-06 0.136D-05 0.267D-05 0.255D-05-0.151D-04-0.983D-04
 Coeff:     -0.585D-04 0.479D-03 0.703D-03-0.101D-02-0.619D-02-0.526D-02
 Coeff:      0.161D-01 0.305D-01-0.208D-01-0.129D+00-0.125D+00 0.305D+00
 Coeff:      0.935D+00
 Gap=     0.126 Goal=   None    Shift=    0.000
 Gap=     0.151 Goal=   None    Shift=    0.000
 RMSDP=5.25D-09 MaxDP=1.21D-06 DE=-3.24D-10 OVMax= 3.36D-06

 Cycle  20  Pass 1  IDiag  1:
 RMSU=  1.61D-09    CP:  9.77D-01  1.18D+00  9.50D-01  8.11D-01  1.61D+00
                    CP:  2.20D+00  2.16D+00  2.00D+00  1.66D+00  1.59D+00
                    CP:  2.28D+00  3.00D+00  2.70D+00  2.34D+00  1.91D+00
                    CP:  1.94D+00  1.37D+00  1.82D+00  1.57D+00
 E= -1957.28927143098     Delta-E=        0.000000000370 Rises=F Damp=F
 DIIS: error= 9.71D-09 at cycle  20 NSaved=  20.
 NSaved=20 IEnMin=19 EnMin= -1957.28927143135     IErMin=20 ErrMin= 9.71D-09
 ErrMax= 9.71D-09  0.00D+00 EMaxC= 1.00D-01 BMatC= 1.36D-12 BMatP= 5.70D-12
 IDIUse=1 WtCom= 1.00D+00 WtEn= 0.00D+00
 Coeff-Com: -0.483D-06 0.110D-05 0.378D-05 0.692D-05 0.457D-05-0.504D-04
 Coeff-Com: -0.128D-03 0.134D-03 0.507D-03 0.658D-03-0.143D-02-0.507D-02
 Coeff-Com: -0.113D-02 0.155D-01 0.232D-01-0.339D-01-0.114D+00-0.897D-01
 Coeff-Com:  0.262D+00 0.943D+00
 Coeff:     -0.483D-06 0.110D-05 0.378D-05 0.692D-05 0.457D-05-0.504D-04
 Coeff:     -0.128D-03 0.134D-03 0.507D-03 0.658D-03-0.143D-02-0.507D-02
 Coeff:     -0.113D-02 0.155D-01 0.232D-01-0.339D-01-0.114D+00-0.897D-01
 Coeff:      0.262D+00 0.943D+00
 Gap=     0.126 Goal=   None    Shift=    0.000
 Gap=     0.151 Goal=   None    Shift=    0.000
 RMSDP=2.56D-09 MaxDP=4.00D-07 DE= 3.70D-10 OVMax= 1.99D-06

 Error on total polarization charges =  0.02724
 SCF Done:  E(UM062X) =  -1957.28927143     A.U. after   20 cycles
            NFock= 20  Conv=0.26D-08     -V/T= 2.0056
 <Sx>= 0.0000 <Sy>= 0.0000 <Sz>= 0.5000 <S**2>= 0.7832 S= 0.5165
 <L.S>= 0.000000000000E+00
 KE= 1.946380760988D+03 PE=-1.520635805969D+04 EE= 5.994690815330D+03
 Annihilation of the first spin contaminant:
 S**2 before annihilation     0.7832,   after     0.7509
 Leave Link  502 at Thu Nov  6 02:04:53 2025, MaxMem= 30870077440 cpu:          146087.4 elap:            2306.4
 (Enter /public/software/gauss/g16/l601.exe)
 Copying SCF densities to generalized density rwf, IOpCl= 1 IROHF=0.

 **********************************************************************

            Population analysis using the SCF density.

 **********************************************************************

 Orbital symmetries:
 Alpha Orbitals:
       Occupied  (A) (A) (A) (A) (A) (A) (A) (A) (A) (A) (A) (A)
                 (A) (A) (A) (A) (A) (A) (A) (A) (A) (A) (A) (A)
                 (A) (A) (A) (A) (A) (A) (A) (A) (A) (A) (A) (A)
                 (A) (A) (A) (A) (A) (A) (A) (A) (A) (A) (A) (A)
                 (A) (A) (A) (A) (A) (A) (A) (A) (A) (A) (A) (A)
                 (A) (A) (A) (A) (A) (A) (A) (A) (A) (A) (A) (A)
                 (A) (A) (A) (A) (A) (A) (A) (A) (A) (A) (A) (A)
                 (A) (A) (A) (A) (A) (A) (A) (A) (A) (A) (A) (A)
                 (A) (A) (A) (A) (A) (A) (A) (A) (A) (A) (A) (A)
                 (A) (A) (A) (A) (A) (A) (A) (A) (A) (A) (A) (A)
                 (A) (A) (A) (A) (A) (A) (A) (A) (A) (A) (A) (A)
                 (A) (A) (A) (A) (A) (A) (A) (A) (A) (A) (A) (A)
                 (A) (A) (A) (A) (A) (A) (A) (A) (A) (A) (A) (A)
                 (A) (A) (A) (A) (A) (A) (A)
       Virtual   (A) (A) (A) (A) (A) (A) (A) (A) (A) (A) (A) (A)
                 (A) (A) (A) (A) (A) (A) (A) (A) (A) (A) (A) (A)
                 (A) (A) (A) (A) (A) (A) (A) (A) (A) (A) (A) (A)
                 (A) (A) (A) (A) (A) (A) (A) (A) (A) (A) (A) (A)
                 (A) (A) (A) (A) (A) (A) (A) (A) (A) (A) (A) (A)
                 (A) (A) (A) (A) (A) (A) (A) (A) (A) (A) (A) (A)
                 (A) (A) (A) (A) (A) (A) (A) (A) (A) (A) (A) (A)
                 (A) (A) (A) (A) (A) (A) (A) (A) (A) (A) (A) (A)
                 (A) (A) (A) (A) (A) (A) (A) (A) (A) (A) (A) (A)
                 (A) (A) (A) (A) (A) (A) (A) (A) (A) (A) (A) (A)
                 (A) (A) (A) (A) (A) (A) (A) (A) (A) (A) (A) (A)
                 (A) (A) (A) (A) (A) (A) (A) (A) (A) (A) (A) (A)
                 (A) (A) (A) (A) (A) (A) (A) (A) (A) (A) (A) (A)
                 (A) (A) (A) (A) (A) (A) (A) (A) (A) (A) (A) (A)
                 (A) (A) (A) (A) (A) (A) (A) (A) (A) (A) (A) (A)
                 (A) (A) (A) (A) (A) (A) (A) (A) (A) (A) (A) (A)
                 (A) (A) (A) (A) (A) (A) (A) (A) (A) (A) (A) (A)
                 (A) (A) (A) (A) (A) (A) (A) (A) (A) (A) (A) (A)
                 (A) (A) (A) (A) (A) (A) (A) (A) (A) (A) (A) (A)
                 (A) (A) (A) (A) (A) (A) (A) (A) (A) (A) (A) (A)
                 (A) (A) (A) (A) (A) (A) (A) (A) (A) (A) (A) (A)
                 (A) (A) (A) (A) (A) (A) (A) (A) (A) (A) (A) (A)
                 (A) (A) (A) (A) (A) (A) (A) (A) (A) (A) (A) (A)
                 (A) (A) (A) (A) (A) (A) (A) (A) (A) (A) (A) (A)
                 (A) (A) (A) (A) (A) (A) (A) (A) (A) (A) (A) (A)
                 (A) (A) (A) (A) (A) (A) (A) (A) (A) (A) (A) (A)
                 (A) (A) (A) (A) (A) (A) (A) (A) (A) (A) (A) (A)
                 (A) (A) (A) (A) (A) (A) (A) (A) (A) (A) (A) (A)
                 (A) (A) (A) (A) (A) (A) (A) (A) (A) (A) (A) (A)
                 (A) (A) (A) (A) (A) (A) (A) (A) (A) (A) (A) (A)
                 (A) (A) (A) (A) (A) (A) (A) (A) (A) (A) (A) (A)
                 (A) (A) (A) (A) (A) (A) (A) (A) (A) (A) (A) (A)
                 (A) (A) (A) (A) (A) (A) (A) (A) (A) (A) (A) (A)
                 (A) (A) (A) (A) (A) (A) (A) (A) (A) (A) (A) (A)
                 (A) (A) (A) (A) (A) (A) (A) (A) (A) (A) (A) (A)
                 (A) (A) (A) (A) (A) (A) (A) (A) (A) (A) (A) (A)
                 (A) (A) (A) (A) (A) (A) (A) (A) (A) (A) (A) (A)
                 (A) (A) (A) (A) (A) (A) (A) (A) (A) (A) (A) (A)
                 (A) (A) (A) (A) (A) (A) (A) (A) (A) (A) (A) (A)
                 (A) (A) (A) (A) (A) (A) (A) (A) (A) (A) (A) (A)
                 (A) (A) (A) (A) (A) (A) (A) (A) (A) (A) (A) (A)
                 (A) (A) (A) (A) (A) (A) (A) (A) (A) (A) (A) (A)
                 (A) (A) (A) (A) (A) (A) (A) (A) (A) (A) (A) (A)
                 (A) (A) (A) (A) (A) (A) (A) (A) (A) (A) (A) (A)
                 (A) (A) (A) (A) (A) (A) (A) (A) (A) (A) (A) (A)
                 (A) (A) (A) (A) (A) (A) (A) (A) (A) (A) (A) (A)
                 (A) (A) (A) (A) (A) (A) (A) (A) (A) (A) (A) (A)
                 (A) (A) (A) (A) (A) (A) (A) (A) (A) (A) (A) (A)
                 (A) (A) (A) (A) (A) (A) (A) (A) (A) (A) (A) (A)
                 (A) (A) (A) (A) (A) (A) (A) (A) (A) (A) (A) (A)
                 (A) (A) (A) (A) (A) (A) (A) (A) (A) (A) (A) (A)
                 (A) (A) (A) (A) (A) (A) (A) (A) (A) (A) (A) (A)
                 (A) (A) (A) (A) (A) (A) (A) (A) (A) (A) (A) (A)
                 (A) (A) (A) (A) (A) (A) (A) (A) (A) (A) (A) (A)
                 (A) (A) (A) (A) (A) (A) (A) (A) (A) (A) (A) (A)
                 (A) (A) (A) (A) (A) (A) (A) (A) (A) (A) (A) (A)
                 (A) (A) (A) (A) (A) (A) (A) (A) (A) (A) (A) (A)
                 (A) (A) (A) (A) (A) (A) (A) (A) (A) (A) (A) (A)
                 (A) (A) (A) (A) (A) (A) (A) (A) (A) (A) (A) (A)
                 (A) (A) (A) (A) (A) (A) (A) (A) (A) (A) (A) (A)
                 (A) (A) (A) (A) (A) (A) (A) (A) (A) (A) (A) (A)
                 (A) (A) (A) (A) (A) (A) (A) (A) (A) (A) (A) (A)
                 (A) (A) (A) (A) (A) (A) (A) (A) (A) (A) (A) (A)
                 (A) (A) (A) (A) (A) (A) (A) (A) (A) (A) (A) (A)
                 (A) (A) (A) (A) (A) (A) (A) (A) (A) (A) (A) (A)
                 (A) (A) (A) (A) (A) (A) (A) (A) (A) (A) (A) (A)
                 (A) (A) (A) (A) (A) (A) (A) (A) (A) (A) (A) (A)
                 (A) (A) (A) (A) (A) (A) (A) (A) (A) (A) (A) (A)
                 (A) (A) (A) (A) (A) (A) (A) (A) (A) (A) (A) (A)
                 (A) (A) (A) (A) (A) (A) (A) (A) (A) (A) (A) (A)
                 (A) (A) (A) (A) (A) (A) (A) (A) (A) (A) (A) (A)
                 (A) (A) (A) (A) (A) (A) (A) (A) (A) (A) (A) (A)
                 (A) (A) (A) (A) (A) (A) (A) (A) (A) (A) (A) (A)
                 (A) (A) (A) (A) (A) (A) (A) (A) (A) (A) (A) (A)
                 (A) (A) (A) (A) (A) (A) (A) (A) (A) (A) (A) (A)
                 (A) (A) (A) (A) (A) (A) (A) (A) (A) (A) (A) (A)
                 (A) (A) (A) (A) (A) (A) (A) (A) (A) (A) (A) (A)
                 (A) (A) (A) (A) (A) (A) (A) (A) (A) (A) (A) (A)
                 (A) (A) (A) (A) (A) (A) (A) (A) (A) (A) (A) (A)
                 (A) (A) (A) (A) (A) (A) (A) (A) (A) (A) (A) (A)
                 (A) (A) (A) (A) (A) (A) (A) (A) (A) (A) (A) (A)
                 (A) (A) (A) (A) (A) (A) (A) (A) (A) (A) (A) (A)
                 (A) (A) (A) (A) (A) (A) (A) (A) (A) (A) (A) (A)
                 (A) (A) (A) (A) (A) (A) (A) (A) (A) (A) (A) (A)
                 (A) (A) (A) (A) (A) (A) (A) (A) (A) (A) (A) (A)
                 (A) (A) (A) (A) (A) (A) (A) (A) (A) (A) (A) (A)
                 (A) (A) (A) (A) (A) (A) (A) (A) (A) (A) (A) (A)
                 (A) (A) (A) (A) (A) (A) (A) (A) (A) (A) (A) (A)
                 (A) (A) (A) (A) (A) (A) (A) (A) (A) (A) (A) (A)
                 (A) (A) (A) (A) (A) (A) (A) (A) (A) (A) (A) (A)
                 (A) (A) (A) (A) (A) (A) (A) (A) (A) (A) (A) (A)
                 (A) (A) (A) (A) (A) (A) (A) (A) (A) (A) (A) (A)
                 (A) (A) (A) (A) (A) (A) (A) (A) (A) (A) (A) (A)
                 (A) (A) (A) (A) (A) (A) (A) (A) (A) (A) (A) (A)
                 (A) (A) (A) (A) (A) (A) (A) (A) (A) (A) (A) (A)
                 (A) (A) (A) (A) (A) (A) (A) (A) (A) (A) (A) (A)
                 (A) (A) (A) (A) (A) (A) (A) (A) (A) (A) (A) (A)
                 (A) (A) (A) (A) (A) (A) (A) (A) (A) (A) (A) (A)
                 (A) (A) (A) (A) (A) (A) (A) (A) (A) (A) (A) (A)
                 (A) (A) (A) (A) (A) (A) (A) (A) (A) (A) (A) (A)
                 (A) (A) (A) (A) (A) (A) (A) (A) (A) (A) (A) (A)
                 (A) (A) (A) (A) (A) (A) (A) (A) (A) (A) (A) (A)
                 (A) (A) (A) (A) (A) (A) (A) (A) (A) (A) (A) (A)
                 (A) (A) (A) (A) (A) (A) (A) (A) (A) (A) (A) (A)
                 (A) (A) (A) (A) (A) (A) (A) (A) (A) (A) (A) (A)
                 (A) (A) (A) (A) (A) (A) (A) (A) (A) (A) (A) (A)
                 (A) (A) (A) (A) (A) (A) (A) (A) (A) (A) (A) (A)
                 (A) (A) (A) (A) (A) (A) (A) (A) (A) (A) (A) (A)
                 (A) (A) (A) (A) (A) (A) (A) (A) (A) (A) (A) (A)
                 (A) (A) (A) (A) (A) (A) (A) (A) (A) (A) (A) (A)
                 (A) (A) (A) (A) (A) (A) (A) (A) (A) (A) (A) (A)
                 (A) (A) (A) (A) (A) (A) (A) (A) (A) (A) (A) (A)
                 (A) (A) (A) (A) (A) (A) (A) (A) (A) (A) (A) (A)
                 (A) (A) (A) (A) (A) (A) (A) (A) (A) (A) (A) (A)
                 (A) (A) (A) (A) (A) (A) (A) (A) (A) (A) (A) (A)
                 (A) (A) (A) (A) (A) (A) (A) (A) (A) (A) (A) (A)
                 (A) (A) (A) (A) (A) (A) (A) (A) (A) (A) (A) (A)
                 (A) (A) (A) (A) (A) (A) (A) (A) (A) (A) (A) (A)
                 (A) (A) (A) (A) (A) (A) (A) (A) (A) (A) (A) (A)
                 (A) (A) (A) (A) (A) (A) (A) (A) (A) (A) (A) (A)
                 (A) (A) (A) (A) (A) (A) (A) (A) (A) (A) (A) (A)
                 (A) (A) (A) (A) (A) (A) (A) (A) (A) (A) (A) (A)
                 (A) (A) (A) (A) (A) (A) (A) (A) (A) (A) (A) (A)
                 (A) (A) (A) (A) (A) (A) (A) (A) (A) (A) (A) (A)
                 (A) (A) (A) (A) (A) (A) (A) (A) (A) (A) (A) (A)
                 (A) (A) (A) (A) (A) (A) (A) (A) (A) (A) (A) (A)
                 (A) (A) (A) (A) (A) (A) (A) (A) (A) (A) (A) (A)
                 (A) (A) (A) (A) (A) (A) (A) (A) (A) (A) (A) (A)
                 (A) (A) (A) (A) (A) (A) (A) (A) (A) (A) (A) (A)
                 (A) (A) (A) (A) (A) (A) (A) (A) (A) (A) (A) (A)
                 (A) (A) (A) (A) (A) (A) (A) (A) (A) (A) (A) (A)
                 (A) (A) (A) (A) (A) (A) (A) (A) (A) (A) (A) (A)
                 (A) (A) (A) (A) (A) (A) (A) (A) (A) (A) (A) (A)
                 (A) (A) (A) (A) (A) (A) (A) (A) (A) (A) (A) (A)
                 (A) (A) (A) (A) (A) (A) (A) (A) (A) (A) (A) (A)
                 (A) (A) (A) (A) (A) (A) (A) (A) (A) (A) (A) (A)
                 (A) (A) (A) (A) (A) (A) (A) (A) (A) (A) (A) (A)
                 (A) (A) (A) (A) (A) (A) (A) (A) (A) (A) (A) (A)
                 (A) (A) (A) (A) (A) (A) (A) (A) (A) (A) (A) (A)
                 (A) (A) (A) (A) (A) (A) (A) (A) (A) (A) (A) (A)
                 (A) (A) (A) (A) (A) (A) (A) (A) (A) (A) (A) (A)
                 (A) (A) (A) (A) (A) (A) (A) (A) (A) (A) (A) (A)
                 (A) (A) (A) (A) (A) (A) (A) (A) (A) (A) (A) (A)
                 (A) (A) (A) (A) (A) (A) (A) (A) (A) (A) (A) (A)
                 (A) (A) (A) (A) (A) (A) (A) (A) (A) (A) (A) (A)
                 (A) (A) (A) (A) (A) (A) (A) (A) (A) (A) (A) (A)
                 (A) (A) (A) (A) (A) (A) (A) (A) (A) (A) (A) (A)
                 (A) (A) (A) (A) (A) (A) (A) (A) (A) (A) (A) (A)
                 (A) (A) (A) (A) (A) (A) (A) (A) (A) (A) (A) (A)
                 (A) (A) (A) (A) (A) (A) (A) (A) (A) (A) (A) (A)
                 (A) (A) (A) (A) (A) (A) (A) (A) (A)
 Beta  Orbitals:
       Occupied  (A) (A) (A) (A) (A) (A) (A) (A) (A) (A) (A) (A)
                 (A) (A) (A) (A) (A) (A) (A) (A) (A) (A) (A) (A)
                 (A) (A) (A) (A) (A) (A) (A) (A) (A) (A) (A) (A)
                 (A) (A) (A) (A) (A) (A) (A) (A) (A) (A) (A) (A)
                 (A) (A) (A) (A) (A) (A) (A) (A) (A) (A) (A) (A)
                 (A) (A) (A) (A) (A) (A) (A) (A) (A) (A) (A) (A)
                 (A) (A) (A) (A) (A) (A) (A) (A) (A) (A) (A) (A)
                 (A) (A) (A) (A) (A) (A) (A) (A) (A) (A) (A) (A)
                 (A) (A) (A) (A) (A) (A) (A) (A) (A) (A) (A) (A)
                 (A) (A) (A) (A) (A) (A) (A) (A) (A) (A) (A) (A)
                 (A) (A) (A) (A) (A) (A) (A) (A) (A) (A) (A) (A)
                 (A) (A) (A) (A) (A) (A) (A) (A) (A) (A) (A) (A)
                 (A) (A) (A) (A) (A) (A) (A) (A) (A) (A) (A) (A)
                 (A) (A) (A) (A) (A) (A)
       Virtual   (A) (A) (A) (A) (A) (A) (A) (A) (A) (A) (A) (A)
                 (A) (A) (A) (A) (A) (A) (A) (A) (A) (A) (A) (A)
                 (A) (A) (A) (A) (A) (A) (A) (A) (A) (A) (A) (A)
                 (A) (A) (A) (A) (A) (A) (A) (A) (A) (A) (A) (A)
                 (A) (A) (A) (A) (A) (A) (A) (A) (A) (A) (A) (A)
                 (A) (A) (A) (A) (A) (A) (A) (A) (A) (A) (A) (A)
                 (A) (A) (A) (A) (A) (A) (A) (A) (A) (A) (A) (A)
                 (A) (A) (A) (A) (A) (A) (A) (A) (A) (A) (A) (A)
                 (A) (A) (A) (A) (A) (A) (A) (A) (A) (A) (A) (A)
                 (A) (A) (A) (A) (A) (A) (A) (A) (A) (A) (A) (A)
                 (A) (A) (A) (A) (A) (A) (A) (A) (A) (A) (A) (A)
                 (A) (A) (A) (A) (A) (A) (A) (A) (A) (A) (A) (A)
                 (A) (A) (A) (A) (A) (A) (A) (A) (A) (A) (A) (A)
                 (A) (A) (A) (A) (A) (A) (A) (A) (A) (A) (A) (A)
                 (A) (A) (A) (A) (A) (A) (A) (A) (A) (A) (A) (A)
                 (A) (A) (A) (A) (A) (A) (A) (A) (A) (A) (A) (A)
                 (A) (A) (A) (A) (A) (A) (A) (A) (A) (A) (A) (A)
                 (A) (A) (A) (A) (A) (A) (A) (A) (A) (A) (A) (A)
                 (A) (A) (A) (A) (A) (A) (A) (A) (A) (A) (A) (A)
                 (A) (A) (A) (A) (A) (A) (A) (A) (A) (A) (A) (A)
                 (A) (A) (A) (A) (A) (A) (A) (A) (A) (A) (A) (A)
                 (A) (A) (A) (A) (A) (A) (A) (A) (A) (A) (A) (A)
                 (A) (A) (A) (A) (A) (A) (A) (A) (A) (A) (A) (A)
                 (A) (A) (A) (A) (A) (A) (A) (A) (A) (A) (A) (A)
                 (A) (A) (A) (A) (A) (A) (A) (A) (A) (A) (A) (A)
                 (A) (A) (A) (A) (A) (A) (A) (A) (A) (A) (A) (A)
                 (A) (A) (A) (A) (A) (A) (A) (A) (A) (A) (A) (A)
                 (A) (A) (A) (A) (A) (A) (A) (A) (A) (A) (A) (A)
                 (A) (A) (A) (A) (A) (A) (A) (A) (A) (A) (A) (A)
                 (A) (A) (A) (A) (A) (A) (A) (A) (A) (A) (A) (A)
                 (A) (A) (A) (A) (A) (A) (A) (A) (A) (A) (A) (A)
                 (A) (A) (A) (A) (A) (A) (A) (A) (A) (A) (A) (A)
                 (A) (A) (A) (A) (A) (A) (A) (A) (A) (A) (A) (A)
                 (A) (A) (A) (A) (A) (A) (A) (A) (A) (A) (A) (A)
                 (A) (A) (A) (A) (A) (A) (A) (A) (A) (A) (A) (A)
                 (A) (A) (A) (A) (A) (A) (A) (A) (A) (A) (A) (A)
                 (A) (A) (A) (A) (A) (A) (A) (A) (A) (A) (A) (A)
                 (A) (A) (A) (A) (A) (A) (A) (A) (A) (A) (A) (A)
                 (A) (A) (A) (A) (A) (A) (A) (A) (A) (A) (A) (A)
                 (A) (A) (A) (A) (A) (A) (A) (A) (A) (A) (A) (A)
                 (A) (A) (A) (A) (A) (A) (A) (A) (A) (A) (A) (A)
                 (A) (A) (A) (A) (A) (A) (A) (A) (A) (A) (A) (A)
                 (A) (A) (A) (A) (A) (A) (A) (A) (A) (A) (A) (A)
                 (A) (A) (A) (A) (A) (A) (A) (A) (A) (A) (A) (A)
                 (A) (A) (A) (A) (A) (A) (A) (A) (A) (A) (A) (A)
                 (A) (A) (A) (A) (A) (A) (A) (A) (A) (A) (A) (A)
                 (A) (A) (A) (A) (A) (A) (A) (A) (A) (A) (A) (A)
                 (A) (A) (A) (A) (A) (A) (A) (A) (A) (A) (A) (A)
                 (A) (A) (A) (A) (A) (A) (A) (A) (A) (A) (A) (A)
                 (A) (A) (A) (A) (A) (A) (A) (A) (A) (A) (A) (A)
                 (A) (A) (A) (A) (A) (A) (A) (A) (A) (A) (A) (A)
                 (A) (A) (A) (A) (A) (A) (A) (A) (A) (A) (A) (A)
                 (A) (A) (A) (A) (A) (A) (A) (A) (A) (A) (A) (A)
                 (A) (A) (A) (A) (A) (A) (A) (A) (A) (A) (A) (A)
                 (A) (A) (A) (A) (A) (A) (A) (A) (A) (A) (A) (A)
                 (A) (A) (A) (A) (A) (A) (A) (A) (A) (A) (A) (A)
                 (A) (A) (A) (A) (A) (A) (A) (A) (A) (A) (A) (A)
                 (A) (A) (A) (A) (A) (A) (A) (A) (A) (A) (A) (A)
                 (A) (A) (A) (A) (A) (A) (A) (A) (A) (A) (A) (A)
                 (A) (A) (A) (A) (A) (A) (A) (A) (A) (A) (A) (A)
                 (A) (A) (A) (A) (A) (A) (A) (A) (A) (A) (A) (A)
                 (A) (A) (A) (A) (A) (A) (A) (A) (A) (A) (A) (A)
                 (A) (A) (A) (A) (A) (A) (A) (A) (A) (A) (A) (A)
                 (A) (A) (A) (A) (A) (A) (A) (A) (A) (A) (A) (A)
                 (A) (A) (A) (A) (A) (A) (A) (A) (A) (A) (A) (A)
                 (A) (A) (A) (A) (A) (A) (A) (A) (A) (A) (A) (A)
                 (A) (A) (A) (A) (A) (A) (A) (A) (A) (A) (A) (A)
                 (A) (A) (A) (A) (A) (A) (A) (A) (A) (A) (A) (A)
                 (A) (A) (A) (A) (A) (A) (A) (A) (A) (A) (A) (A)
                 (A) (A) (A) (A) (A) (A) (A) (A) (A) (A) (A) (A)
                 (A) (A) (A) (A) (A) (A) (A) (A) (A) (A) (A) (A)
                 (A) (A) (A) (A) (A) (A) (A) (A) (A) (A) (A) (A)
                 (A) (A) (A) (A) (A) (A) (A) (A) (A) (A) (A) (A)
                 (A) (A) (A) (A) (A) (A) (A) (A) (A) (A) (A) (A)
                 (A) (A) (A) (A) (A) (A) (A) (A) (A) (A) (A) (A)
                 (A) (A) (A) (A) (A) (A) (A) (A) (A) (A) (A) (A)
                 (A) (A) (A) (A) (A) (A) (A) (A) (A) (A) (A) (A)
                 (A) (A) (A) (A) (A) (A) (A) (A) (A) (A) (A) (A)
                 (A) (A) (A) (A) (A) (A) (A) (A) (A) (A) (A) (A)
                 (A) (A) (A) (A) (A) (A) (A) (A) (A) (A) (A) (A)
                 (A) (A) (A) (A) (A) (A) (A) (A) (A) (A) (A) (A)
                 (A) (A) (A) (A) (A) (A) (A) (A) (A) (A) (A) (A)
                 (A) (A) (A) (A) (A) (A) (A) (A) (A) (A) (A) (A)
                 (A) (A) (A) (A) (A) (A) (A) (A) (A) (A) (A) (A)
                 (A) (A) (A) (A) (A) (A) (A) (A) (A) (A) (A) (A)
                 (A) (A) (A) (A) (A) (A) (A) (A) (A) (A) (A) (A)
                 (A) (A) (A) (A) (A) (A) (A) (A) (A) (A) (A) (A)
                 (A) (A) (A) (A) (A) (A) (A) (A) (A) (A) (A) (A)
                 (A) (A) (A) (A) (A) (A) (A) (A) (A) (A) (A) (A)
                 (A) (A) (A) (A) (A) (A) (A) (A) (A) (A) (A) (A)
                 (A) (A) (A) (A) (A) (A) (A) (A) (A) (A) (A) (A)
                 (A) (A) (A) (A) (A) (A) (A) (A) (A) (A) (A) (A)
                 (A) (A) (A) (A) (A) (A) (A) (A) (A) (A) (A) (A)
                 (A) (A) (A) (A) (A) (A) (A) (A) (A) (A) (A) (A)
                 (A) (A) (A) (A) (A) (A) (A) (A) (A) (A) (A) (A)
                 (A) (A) (A) (A) (A) (A) (A) (A) (A) (A) (A) (A)
                 (A) (A) (A) (A) (A) (A) (A) (A) (A) (A) (A) (A)
                 (A) (A) (A) (A) (A) (A) (A) (A) (A) (A) (A) (A)
                 (A) (A) (A) (A) (A) (A) (A) (A) (A) (A) (A) (A)
                 (A) (A) (A) (A) (A) (A) (A) (A) (A) (A) (A) (A)
                 (A) (A) (A) (A) (A) (A) (A) (A) (A) (A) (A) (A)
                 (A) (A) (A) (A) (A) (A) (A) (A) (A) (A) (A) (A)
                 (A) (A) (A) (A) (A) (A) (A) (A) (A) (A) (A) (A)
                 (A) (A) (A) (A) (A) (A) (A) (A) (A) (A) (A) (A)
                 (A) (A) (A) (A) (A) (A) (A) (A) (A) (A) (A) (A)
                 (A) (A) (A) (A) (A) (A) (A) (A) (A) (A) (A) (A)
                 (A) (A) (A) (A) (A) (A) (A) (A) (A) (A) (A) (A)
                 (A) (A) (A) (A) (A) (A) (A) (A) (A) (A) (A) (A)
                 (A) (A) (A) (A) (A) (A) (A) (A) (A) (A) (A) (A)
                 (A) (A) (A) (A) (A) (A) (A) (A) (A) (A) (A) (A)
                 (A) (A) (A) (A) (A) (A) (A) (A) (A) (A) (A) (A)
                 (A) (A) (A) (A) (A) (A) (A) (A) (A) (A) (A) (A)
                 (A) (A) (A) (A) (A) (A) (A) (A) (A) (A) (A) (A)
                 (A) (A) (A) (A) (A) (A) (A) (A) (A) (A) (A) (A)
                 (A) (A) (A) (A) (A) (A) (A) (A) (A) (A) (A) (A)
                 (A) (A) (A) (A) (A) (A) (A) (A) (A) (A) (A) (A)
                 (A) (A) (A) (A) (A) (A) (A) (A) (A) (A) (A) (A)
                 (A) (A) (A) (A) (A) (A) (A) (A) (A) (A) (A) (A)
                 (A) (A) (A) (A) (A) (A) (A) (A) (A) (A) (A) (A)
                 (A) (A) (A) (A) (A) (A) (A) (A) (A) (A) (A) (A)
                 (A) (A) (A) (A) (A) (A) (A) (A) (A) (A) (A) (A)
                 (A) (A) (A) (A) (A) (A) (A) (A) (A) (A) (A) (A)
                 (A) (A) (A) (A) (A) (A) (A) (A) (A) (A) (A) (A)
                 (A) (A) (A) (A) (A) (A) (A) (A) (A) (A) (A) (A)
                 (A) (A) (A) (A) (A) (A) (A) (A) (A) (A) (A) (A)
                 (A) (A) (A) (A) (A) (A) (A) (A) (A) (A) (A) (A)
                 (A) (A) (A) (A) (A) (A) (A) (A) (A) (A) (A) (A)
                 (A) (A) (A) (A) (A) (A) (A) (A) (A) (A) (A) (A)
                 (A) (A) (A) (A) (A) (A) (A) (A) (A) (A) (A) (A)
                 (A) (A) (A) (A) (A) (A) (A) (A) (A) (A) (A) (A)
                 (A) (A) (A) (A) (A) (A) (A) (A) (A) (A) (A) (A)
                 (A) (A) (A) (A) (A) (A) (A) (A) (A) (A) (A) (A)
                 (A) (A) (A) (A) (A) (A) (A) (A) (A) (A) (A) (A)
                 (A) (A) (A) (A) (A) (A) (A) (A) (A) (A) (A) (A)
                 (A) (A) (A) (A) (A) (A) (A) (A) (A) (A) (A) (A)
                 (A) (A) (A) (A) (A) (A) (A) (A) (A) (A) (A) (A)
                 (A) (A) (A) (A) (A) (A) (A) (A) (A) (A) (A) (A)
                 (A) (A) (A) (A) (A) (A) (A) (A) (A) (A) (A) (A)
                 (A) (A) (A) (A) (A) (A) (A) (A) (A) (A) (A) (A)
                 (A) (A) (A) (A) (A) (A) (A) (A) (A) (A) (A) (A)
                 (A) (A) (A) (A) (A) (A) (A) (A) (A) (A) (A) (A)
                 (A) (A) (A) (A) (A) (A) (A) (A) (A) (A) (A) (A)
                 (A) (A) (A) (A) (A) (A) (A) (A) (A) (A) (A) (A)
                 (A) (A) (A) (A) (A) (A) (A) (A) (A) (A) (A) (A)
                 (A) (A) (A) (A) (A) (A) (A) (A) (A) (A) (A) (A)
                 (A) (A) (A) (A) (A) (A) (A) (A) (A) (A) (A) (A)
                 (A) (A) (A) (A) (A) (A) (A) (A) (A) (A) (A) (A)
                 (A) (A) (A) (A) (A) (A) (A) (A) (A) (A) (A) (A)
                 (A) (A) (A) (A) (A) (A) (A) (A) (A) (A) (A) (A)
                 (A) (A) (A) (A) (A) (A) (A) (A) (A) (A) (A) (A)
                 (A) (A) (A) (A) (A) (A) (A) (A) (A) (A)
 The electronic state is 2-A.
 Alpha  occ. eigenvalues --  -25.18645 -25.18570 -19.63107 -14.75157 -14.75080
 Alpha  occ. eigenvalues --  -10.63554 -10.56853 -10.56551 -10.56331 -10.56293
 Alpha  occ. eigenvalues --  -10.56123 -10.56057 -10.55784 -10.55711 -10.55296
 Alpha  occ. eigenvalues --  -10.55277 -10.55218 -10.55143 -10.55123 -10.55092
 Alpha  occ. eigenvalues --  -10.55030 -10.54451 -10.54372 -10.54283 -10.54256
 Alpha  occ. eigenvalues --  -10.54255 -10.54195 -10.54165 -10.54103 -10.54094
 Alpha  occ. eigenvalues --  -10.54086 -10.54023 -10.53926 -10.53392 -10.53303
 Alpha  occ. eigenvalues --  -10.53210 -10.53150 -10.53086 -10.53078 -10.52886
 Alpha  occ. eigenvalues --  -10.52612 -10.52581 -10.52562 -10.52431 -10.52225
 Alpha  occ. eigenvalues --   -7.10634  -1.30302  -1.27052  -1.16606  -1.07317
 Alpha  occ. eigenvalues --   -1.05337  -0.97721  -0.96553  -0.96469  -0.91731
 Alpha  occ. eigenvalues --   -0.90457  -0.90218  -0.89544  -0.89428  -0.86434
 Alpha  occ. eigenvalues --   -0.86236  -0.85480  -0.84237  -0.84118  -0.84072
 Alpha  occ. eigenvalues --   -0.83936  -0.83382  -0.79786  -0.79370  -0.77954
 Alpha  occ. eigenvalues --   -0.77825  -0.75663  -0.74975  -0.72036  -0.71575
 Alpha  occ. eigenvalues --   -0.70645  -0.70205  -0.69476  -0.69084  -0.68061
 Alpha  occ. eigenvalues --   -0.66807  -0.65658  -0.64726  -0.64360  -0.63206
 Alpha  occ. eigenvalues --   -0.62454  -0.61740  -0.59314  -0.59207  -0.58058
 Alpha  occ. eigenvalues --   -0.57135  -0.56919  -0.56333  -0.56224  -0.55423
 Alpha  occ. eigenvalues --   -0.54502  -0.54293  -0.53592  -0.53095  -0.52616
 Alpha  occ. eigenvalues --   -0.52285  -0.51724  -0.51191  -0.51010  -0.50821
 Alpha  occ. eigenvalues --   -0.50525  -0.50207  -0.49942  -0.49535  -0.49323
 Alpha  occ. eigenvalues --   -0.49024  -0.48775  -0.48722  -0.48660  -0.48303
 Alpha  occ. eigenvalues --   -0.48240  -0.48191  -0.47940  -0.47600  -0.47085
 Alpha  occ. eigenvalues --   -0.46796  -0.46609  -0.46153  -0.45732  -0.45050
 Alpha  occ. eigenvalues --   -0.44953  -0.44728  -0.44480  -0.44260  -0.43972
 Alpha  occ. eigenvalues --   -0.43885  -0.43657  -0.43363  -0.43115  -0.42353
 Alpha  occ. eigenvalues --   -0.42173  -0.41842  -0.41596  -0.41300  -0.40978
 Alpha  occ. eigenvalues --   -0.40436  -0.40196  -0.39936  -0.39778  -0.39209
 Alpha  occ. eigenvalues --   -0.39106  -0.38838  -0.38216  -0.37417  -0.36717
 Alpha  occ. eigenvalues --   -0.35747  -0.34361  -0.33523  -0.32163  -0.31074
 Alpha  occ. eigenvalues --   -0.31030  -0.30932  -0.29094  -0.29043  -0.27874
 Alpha  occ. eigenvalues --   -0.26954  -0.22936  -0.16922
 Alpha virt. eigenvalues --   -0.04349  -0.02074  -0.00998   0.00941   0.01711
 Alpha virt. eigenvalues --    0.01760   0.05580   0.05762   0.05900   0.06549
 Alpha virt. eigenvalues --    0.06994   0.07960   0.08030   0.08288   0.08503
 Alpha virt. eigenvalues --    0.08839   0.08957   0.09534   0.10009   0.10149
 Alpha virt. eigenvalues --    0.10411   0.10783   0.11070   0.11187   0.11400
 Alpha virt. eigenvalues --    0.11670   0.11920   0.12332   0.12411   0.12636
 Alpha virt. eigenvalues --    0.12981   0.13219   0.13322   0.13467   0.13862
 Alpha virt. eigenvalues --    0.14449   0.14531   0.14658   0.14954   0.15349
 Alpha virt. eigenvalues --    0.15389   0.15622   0.15704   0.15827   0.16207
 Alpha virt. eigenvalues --    0.16283   0.16509   0.16896   0.16970   0.17365
 Alpha virt. eigenvalues --    0.17605   0.17914   0.18073   0.18225   0.18502
 Alpha virt. eigenvalues --    0.18682   0.18824   0.19085   0.19238   0.19436
 Alpha virt. eigenvalues --    0.19833   0.20112   0.20197   0.20385   0.20733
 Alpha virt. eigenvalues --    0.21046   0.21268   0.21553   0.21741   0.21930
 Alpha virt. eigenvalues --    0.22285   0.22450   0.22762   0.22955   0.23238
 Alpha virt. eigenvalues --    0.23475   0.23680   0.23792   0.24210   0.24345
 Alpha virt. eigenvalues --    0.24440   0.24830   0.24878   0.25272   0.25440
 Alpha virt. eigenvalues --    0.25645   0.25846   0.26415   0.26734   0.26864
 Alpha virt. eigenvalues --    0.27171   0.27204   0.27574   0.27850   0.27988
 Alpha virt. eigenvalues --    0.28067   0.28426   0.28947   0.29052   0.29096
 Alpha virt. eigenvalues --    0.29443   0.29502   0.29811   0.30180   0.30289
 Alpha virt. eigenvalues --    0.30558   0.30725   0.30889   0.31290   0.31493
 Alpha virt. eigenvalues --    0.31574   0.31991   0.32188   0.32314   0.32615
 Alpha virt. eigenvalues --    0.32732   0.32927   0.32953   0.33174   0.33646
 Alpha virt. eigenvalues --    0.33768   0.33940   0.34096   0.34488   0.34951
 Alpha virt. eigenvalues --    0.34996   0.35497   0.35635   0.35733   0.35948
 Alpha virt. eigenvalues --    0.36143   0.36350   0.36365   0.36554   0.36730
 Alpha virt. eigenvalues --    0.36983   0.37170   0.37330   0.37747   0.37808
 Alpha virt. eigenvalues --    0.38029   0.38502   0.38539   0.38752   0.38822
 Alpha virt. eigenvalues --    0.39069   0.39190   0.39469   0.39811   0.39836
 Alpha virt. eigenvalues --    0.40148   0.40247   0.40431   0.40591   0.40904
 Alpha virt. eigenvalues --    0.41160   0.41317   0.41483   0.41714   0.41916
 Alpha virt. eigenvalues --    0.42089   0.42561   0.42643   0.42755   0.43266
 Alpha virt. eigenvalues --    0.43375   0.43489   0.43900   0.43983   0.44012
 Alpha virt. eigenvalues --    0.44269   0.44683   0.44923   0.44964   0.45042
 Alpha virt. eigenvalues --    0.45266   0.45449   0.45733   0.45886   0.46239
 Alpha virt. eigenvalues --    0.46543   0.46770   0.46932   0.47143   0.47185
 Alpha virt. eigenvalues --    0.47318   0.47399   0.47472   0.47712   0.47986
 Alpha virt. eigenvalues --    0.48124   0.48432   0.48487   0.48574   0.48699
 Alpha virt. eigenvalues --    0.49049   0.49424   0.49513   0.49742   0.49809
 Alpha virt. eigenvalues --    0.49954   0.50479   0.50516   0.50644   0.50977
 Alpha virt. eigenvalues --    0.51247   0.51318   0.51538   0.51625   0.51711
 Alpha virt. eigenvalues --    0.52039   0.52280   0.52706   0.52917   0.53031
 Alpha virt. eigenvalues --    0.53121   0.53317   0.53683   0.53720   0.53963
 Alpha virt. eigenvalues --    0.54166   0.54406   0.54551   0.54658   0.54885
 Alpha virt. eigenvalues --    0.55113   0.55265   0.55533   0.55609   0.56148
 Alpha virt. eigenvalues --    0.56543   0.56884   0.57077   0.57171   0.57330
 Alpha virt. eigenvalues --    0.57506   0.57802   0.58221   0.58341   0.58765
 Alpha virt. eigenvalues --    0.59102   0.59347   0.59689   0.59783   0.60375
 Alpha virt. eigenvalues --    0.60468   0.60864   0.61066   0.61164   0.61729
[...]
              Bcc     0.1896    25.446     9.080     8.488 -0.1339 -0.2682  0.9540
 
              Baa    -0.0585    -7.855    -2.803    -2.620  0.0433 -0.0255  0.9987
    23 C(13)  Bbb     0.0238     3.190     1.138     1.064  0.2900  0.9570  0.0118
              Bcc     0.0348     4.665     1.664     1.556  0.9560 -0.2891 -0.0489
 
              Baa    -0.0690    -9.256    -3.303    -3.087  0.8476  0.5136 -0.1332
    24 C(13)  Bbb    -0.0654    -8.781    -3.133    -2.929 -0.5171  0.8559  0.0101
              Bcc     0.1344    18.037     6.436     6.016  0.1192  0.0603  0.9910
 
              Baa    -0.0214    -2.874    -1.025    -0.959  0.1170  0.1009  0.9880
    25 C(13)  Bbb     0.0086     1.149     0.410     0.383  0.6975  0.6998 -0.1541
              Bcc     0.0128     1.724     0.615     0.575 -0.7069  0.7072  0.0116
 
              Baa    -0.0151    -2.020    -0.721    -0.674  0.4989  0.8530 -0.1533
    26 C(13)  Bbb    -0.0141    -1.886    -0.673    -0.629  0.8629 -0.5053 -0.0031
              Bcc     0.0291     3.906     1.394     1.303  0.0801  0.1307  0.9882
 
              Baa    -0.0118    -1.587    -0.566    -0.529  0.1038  0.1066  0.9889
    27 C(13)  Bbb     0.0050     0.674     0.240     0.225  0.3522  0.9259 -0.1368
              Bcc     0.0068     0.913     0.326     0.305  0.9302 -0.3625 -0.0586
 
              Baa    -0.0186    -2.490    -0.889    -0.831  0.5395  0.8271 -0.1578
    28 C(13)  Bbb    -0.0171    -2.291    -0.817    -0.764  0.8350 -0.5497 -0.0267
              Bcc     0.0356     4.781     1.706     1.595  0.1088  0.1174  0.9871
 
              Baa    -0.0006    -0.084    -0.030    -0.028  0.5441  0.8194 -0.1803
    29 C(13)  Bbb     0.0002     0.031     0.011     0.010  0.6719 -0.5543 -0.4912
              Bcc     0.0004     0.053     0.019     0.018  0.5024 -0.1461  0.8522
 
              Baa    -0.0123    -1.657    -0.591    -0.553  0.1096  0.1121  0.9876
    30 C(13)  Bbb     0.0054     0.721     0.257     0.240  0.7278  0.6677 -0.1566
              Bcc     0.0070     0.936     0.334     0.312 -0.6770  0.7359 -0.0084
 
              Baa    -0.0163    -2.185    -0.780    -0.729  0.4485  0.8816 -0.1470
    31 C(13)  Bbb    -0.0146    -1.965    -0.701    -0.655  0.8861 -0.4601 -0.0564
              Bcc     0.0309     4.150     1.481     1.384  0.1174  0.1050  0.9875
 
              Baa    -0.0518    -1.999    -0.713    -0.667  0.8302  0.5055  0.2351
    32 N(14)  Bbb    -0.0417    -1.607    -0.573    -0.536 -0.5523  0.8033  0.2228
              Bcc     0.0935     3.607     1.287     1.203 -0.0762 -0.3149  0.9461
 
              Baa    -0.0019    -0.325    -0.116    -0.108 -0.2569 -0.2431  0.9354
    33 B(11)  Bbb     0.0006     0.100     0.036     0.033 -0.6795  0.7336  0.0041
              Bcc     0.0013     0.224     0.080     0.075  0.6872  0.6346  0.3537
 
              Baa    -0.0107    -5.385    -1.921    -1.796  0.5360  0.3164  0.7827
    34 F(19)  Bbb    -0.0103    -5.197    -1.854    -1.734  0.2007  0.8528 -0.4822
              Bcc     0.0211    10.582     3.776     3.530  0.8200 -0.4155 -0.3935
 
              Baa    -0.0088    -4.420    -1.577    -1.474  0.6232  0.3268  0.7105
    35 F(19)  Bbb    -0.0080    -4.025    -1.436    -1.342 -0.6826 -0.2160  0.6981
              Bcc     0.0168     8.445     3.013     2.817 -0.3817  0.9201 -0.0885
 
              Baa    -0.0450    -1.735    -0.619    -0.579  0.6653  0.7037  0.2491
    36 N(14)  Bbb    -0.0351    -1.352    -0.483    -0.451  0.7229 -0.6906  0.0202
              Bcc     0.0801     3.088     1.102     1.030 -0.1863 -0.1667  0.9683
 
              Baa    -0.0945   -12.682    -4.525    -4.230  0.8796  0.4121  0.2377
    37 C(13)  Bbb    -0.0926   -12.423    -4.433    -4.144 -0.4476  0.8862  0.1196
              Bcc     0.1871    25.104     8.958     8.374 -0.1614 -0.2116  0.9639
 
              Baa    -0.0359    -4.812    -1.717    -1.605  0.4181  0.0566  0.9066
    38 C(13)  Bbb     0.0140     1.873     0.668     0.625  0.8908  0.1702 -0.4214
              Bcc     0.0219     2.939     1.049     0.981 -0.1781  0.9838  0.0207
 
              Baa    -0.0390    -5.229    -1.866    -1.744 -0.5777 -0.4847  0.6567
    39 C(13)  Bbb    -0.0344    -4.616    -1.647    -1.540 -0.4899  0.8495  0.1960
              Bcc     0.0734     9.846     3.513     3.284  0.6529  0.2085  0.7282
 
              Baa    -0.0111    -1.486    -0.530    -0.496  0.7399 -0.1088  0.6638
    40 C(13)  Bbb     0.0047     0.628     0.224     0.209 -0.5333  0.5066  0.6775
              Bcc     0.0064     0.858     0.306     0.286  0.4100  0.8553 -0.3168
 
              Baa    -0.0088    -1.182    -0.422    -0.394 -0.4372  0.3194  0.8407
    41 C(13)  Bbb    -0.0052    -0.701    -0.250    -0.234  0.6188  0.7852  0.0235
              Bcc     0.0140     1.884     0.672     0.628  0.6526 -0.5305  0.5410
 
              Baa    -0.0063    -0.852    -0.304    -0.284  0.7334 -0.1865  0.6537
    42 C(13)  Bbb     0.0020     0.275     0.098     0.092 -0.3895  0.6729  0.6289
              Bcc     0.0043     0.577     0.206     0.193  0.5571  0.7159 -0.4209
 
              Baa    -0.0089    -1.198    -0.427    -0.400 -0.4484  0.6486  0.6150
    43 C(13)  Bbb    -0.0078    -1.045    -0.373    -0.349  0.4874  0.7542 -0.4401
              Bcc     0.0167     2.243     0.800     0.748  0.7492 -0.1025  0.6543
 
              Baa    -0.0004    -0.052    -0.019    -0.017 -0.2779  0.7082  0.6490
    44 C(13)  Bbb    -0.0000    -0.002    -0.001    -0.001  0.5909 -0.4067  0.6967
              Bcc     0.0004     0.054     0.019     0.018  0.7574  0.5771 -0.3054
 
              Baa    -0.0061    -0.816    -0.291    -0.272  0.7358 -0.1612  0.6578
    45 C(13)  Bbb     0.0026     0.353     0.126     0.118 -0.3262  0.7668  0.5528
              Bcc     0.0034     0.463     0.165     0.154  0.5935  0.6213 -0.5116
 
              Baa    -0.0080    -1.069    -0.381    -0.357 -0.5633  0.4311  0.7048
    46 C(13)  Bbb    -0.0068    -0.912    -0.325    -0.304  0.4926  0.8601 -0.1323
              Bcc     0.0148     1.981     0.707     0.661  0.6633 -0.2727  0.6969
 
              Baa    -0.0006    -0.316    -0.113    -0.106 -0.5800 -0.1769  0.7952
    47 H(1)   Bbb    -0.0002    -0.109    -0.039    -0.036 -0.4520  0.8820 -0.1335
              Bcc     0.0008     0.426     0.152     0.142  0.6777  0.4369  0.5915
 
              Baa    -0.0013    -0.668    -0.238    -0.223  0.8238 -0.0057 -0.5669
    48 H(1)   Bbb    -0.0006    -0.305    -0.109    -0.102 -0.2362  0.9055 -0.3524
              Bcc     0.0018     0.973     0.347     0.324  0.5154  0.4243  0.7446
 
              Baa    -0.0012    -0.655    -0.234    -0.218 -0.3450 -0.6504  0.6767
    49 H(1)   Bbb    -0.0006    -0.334    -0.119    -0.111  0.7205 -0.6455 -0.2532
              Bcc     0.0019     0.989     0.353     0.330  0.6015  0.4003  0.6913
 
              Baa    -0.0013    -0.700    -0.250    -0.234 -0.3152  0.0918  0.9446
    50 H(1)   Bbb    -0.0008    -0.407    -0.145    -0.136 -0.4922  0.8352 -0.2454
              Bcc     0.0021     1.107     0.395     0.369  0.8114  0.5423  0.2181
 
              Baa    -0.0012    -0.629    -0.224    -0.210 -0.2054 -0.0428  0.9777
    51 H(1)   Bbb    -0.0006    -0.294    -0.105    -0.098 -0.6099  0.7869 -0.0937
              Bcc     0.0017     0.923     0.329     0.308  0.7654  0.6156  0.1878
 
              Baa    -0.0026    -1.367    -0.488    -0.456  0.0564 -0.4488  0.8919
    52 H(1)   Bbb    -0.0009    -0.485    -0.173    -0.162  0.3334  0.8505  0.4068
              Bcc     0.0035     1.852     0.661     0.618  0.9411 -0.2744 -0.1976
 
              Baa    -0.0020    -1.046    -0.373    -0.349 -0.3036  0.3264  0.8952
    53 H(1)   Bbb    -0.0015    -0.827    -0.295    -0.276  0.1099  0.9452 -0.3074
              Bcc     0.0035     1.872     0.668     0.624  0.9464 -0.0050  0.3228
 
              Baa    -0.0028    -1.506    -0.537    -0.502 -0.4394 -0.0387  0.8974
    54 H(1)   Bbb    -0.0007    -0.353    -0.126    -0.118  0.3572  0.9092  0.2141
              Bcc     0.0035     1.859     0.663     0.620  0.8242 -0.4146  0.3857
 
              Baa    -0.0033    -1.765    -0.630    -0.589  0.6508  0.1155  0.7504
    55 H(1)   Bbb    -0.0009    -0.463    -0.165    -0.155 -0.1424  0.9894 -0.0288
              Bcc     0.0042     2.228     0.795     0.743  0.7458  0.0881 -0.6603
 
              Baa    -0.0011    -0.609    -0.217    -0.203  0.5824  0.2920  0.7586
    56 H(1)   Bbb    -0.0005    -0.268    -0.096    -0.089  0.4479  0.6635 -0.5993
              Bcc     0.0016     0.877     0.313     0.293 -0.6784  0.6888  0.2556
 
              Baa    -0.0007    -0.379    -0.135    -0.127  0.1501  0.3221  0.9347
    57 H(1)   Bbb    -0.0005    -0.277    -0.099    -0.092  0.9112  0.3218 -0.2572
              Bcc     0.0012     0.657     0.234     0.219 -0.3836  0.8903 -0.2452
 
              Baa    -0.0011    -0.593    -0.212    -0.198  0.5426  0.4245  0.7249
    58 H(1)   Bbb    -0.0005    -0.257    -0.092    -0.086 -0.6408 -0.3489  0.6839
              Bcc     0.0016     0.850     0.303     0.283 -0.5432  0.8355 -0.0827
 
              Baa    -0.0034    -1.798    -0.641    -0.600  0.3478  0.4949  0.7963
    59 H(1)   Bbb    -0.0008    -0.414    -0.148    -0.138  0.9072 -0.3921 -0.1526
              Bcc     0.0041     2.212     0.789     0.738  0.2367  0.7755 -0.5853
 
              Baa    -0.0028    -1.480    -0.528    -0.494 -0.0520 -0.5480  0.8349
    60 H(1)   Bbb    -0.0006    -0.321    -0.115    -0.107  0.9863  0.1026  0.1288
              Bcc     0.0034     1.801     0.643     0.601 -0.1563  0.8302  0.5352
 
              Baa    -0.0025    -1.339    -0.478    -0.447 -0.3157  0.0138  0.9487
    61 H(1)   Bbb    -0.0008    -0.431    -0.154    -0.144  0.9465  0.0755  0.3139
              Bcc     0.0033     1.771     0.632     0.591 -0.0673  0.9970 -0.0369
 
              Baa    -0.0019    -1.019    -0.364    -0.340  0.2492 -0.4943  0.8328
    62 H(1)   Bbb    -0.0015    -0.797    -0.284    -0.266  0.9398 -0.0843 -0.3312
              Bcc     0.0034     1.816     0.648     0.606  0.2340  0.8652  0.4436
 
              Baa    -0.0018    -0.946    -0.338    -0.316 -0.1162 -0.5053  0.8551
    63 H(1)   Bbb    -0.0000    -0.012    -0.004    -0.004  0.8672 -0.4713 -0.1606
              Bcc     0.0018     0.958     0.342     0.320  0.4841  0.7229  0.4930
 
              Baa    -0.0012    -0.631    -0.225    -0.211 -0.2146 -0.4132  0.8850
    64 H(1)   Bbb    -0.0005    -0.243    -0.087    -0.081 -0.6202  0.7576  0.2034
              Bcc     0.0016     0.874     0.312     0.291  0.7545  0.5052  0.4189
 
              Baa    -0.0006    -0.325    -0.116    -0.108  0.0199 -0.0704  0.9973
    65 H(1)   Bbb    -0.0001    -0.038    -0.014    -0.013  0.8254 -0.5617 -0.0561
              Bcc     0.0007     0.363     0.129     0.121  0.5642  0.8243  0.0470
 
              Baa    -0.0011    -0.611    -0.218    -0.204  0.3363 -0.2758  0.9005
    66 H(1)   Bbb    -0.0004    -0.224    -0.080    -0.075 -0.5748  0.6973  0.4283
              Bcc     0.0016     0.835     0.298     0.279  0.7460  0.6616 -0.0760
 
              Baa    -0.0014    -0.770    -0.275    -0.257 -0.0947  0.2728  0.9574
    67 H(1)   Bbb    -0.0001    -0.060    -0.021    -0.020  0.8253 -0.5162  0.2287
              Bcc     0.0016     0.830     0.296     0.277  0.5566  0.8119 -0.1762
 
              Baa    -0.0032    -1.694    -0.604    -0.565  0.3007  0.5863  0.7522
    68 H(1)   Bbb    -0.0024    -1.292    -0.461    -0.431  0.3226  0.6797 -0.6588
              Bcc     0.0056     2.986     1.065     0.996  0.8975 -0.4408 -0.0153
 
              Baa    -0.0069    -3.693    -1.318    -1.232  0.9539 -0.2934 -0.0623
    69 H(1)   Bbb    -0.0019    -0.993    -0.354    -0.331  0.0570 -0.0268  0.9980
              Bcc     0.0088     4.685     1.672     1.563  0.2945  0.9556  0.0089
 
              Baa    -0.0012    -0.646    -0.231    -0.216 -0.2636  0.6361  0.7252
    70 H(1)   Bbb    -0.0009    -0.496    -0.177    -0.165  0.2983 -0.6612  0.6883
              Bcc     0.0021     1.142     0.407     0.381  0.9174  0.3977 -0.0154
 
              Baa    -0.0007    -0.366    -0.131    -0.122  0.0942  0.1347  0.9864
    71 H(1)   Bbb    -0.0003    -0.172    -0.061    -0.057  0.3009  0.9406 -0.1572
              Bcc     0.0010     0.538     0.192     0.179  0.9490 -0.3116 -0.0480
 
              Baa    -0.0005    -0.263    -0.094    -0.088  0.5293  0.8191  0.2213
    72 H(1)   Bbb    -0.0003    -0.162    -0.058    -0.054 -0.4435  0.0447  0.8952
              Bcc     0.0008     0.425     0.152     0.142  0.7233 -0.5719  0.3869
 
              Baa    -0.0004    -0.220    -0.079    -0.073  0.1295  0.7769 -0.6161
    73 H(1)   Bbb    -0.0003    -0.184    -0.066    -0.061  0.2628  0.5723  0.7768
              Bcc     0.0008     0.404     0.144     0.135  0.9561 -0.2625 -0.1301
 
              Baa    -0.0004    -0.238    -0.085    -0.080 -0.0166 -0.2211  0.9751
    74 H(1)   Bbb    -0.0003    -0.161    -0.057    -0.054  0.8326  0.5369  0.1359
              Bcc     0.0007     0.399     0.142     0.133 -0.5536  0.8142  0.1752
 
              Baa    -0.0007    -0.349    -0.124    -0.116  0.0659  0.0859  0.9941
    75 H(1)   Bbb    -0.0002    -0.115    -0.041    -0.038  0.7641  0.6364 -0.1056
              Bcc     0.0009     0.464     0.166     0.155 -0.6418  0.7665 -0.0237
 
              Baa    -0.0011    -0.586    -0.209    -0.196 -0.0529  0.1478  0.9876
    76 H(1)   Bbb    -0.0007    -0.367    -0.131    -0.122  0.9290 -0.3555  0.1030
              Bcc     0.0018     0.953     0.340     0.318  0.3663  0.9229 -0.1185
 
              Baa    -0.0026    -1.379    -0.492    -0.460  0.8304  0.2004  0.5198
    77 H(1)   Bbb    -0.0016    -0.856    -0.306    -0.286 -0.4005 -0.4338  0.8071
              Bcc     0.0042     2.236     0.798     0.746 -0.3873  0.8784  0.2800
 
              Baa    -0.0050    -2.685    -0.958    -0.895  0.4626  0.6910 -0.5555
    78 H(1)   Bbb    -0.0009    -0.504    -0.180    -0.168  0.7120  0.0839  0.6972
              Bcc     0.0060     3.188     1.138     1.063 -0.5283  0.7180  0.4532
 
              Baa    -0.0027    -1.437    -0.513    -0.479  0.8527 -0.3100  0.4205
    79 H(1)   Bbb    -0.0013    -0.677    -0.241    -0.226 -0.2425  0.4780  0.8442
              Bcc     0.0040     2.113     0.754     0.705  0.4627  0.8219 -0.3324
 
              Baa    -0.0007    -0.356    -0.127    -0.119  0.7176 -0.0458  0.6950
    80 H(1)   Bbb    -0.0004    -0.229    -0.082    -0.076 -0.4625  0.7147  0.5247
              Bcc     0.0011     0.585     0.209     0.195  0.5207  0.6979 -0.4917
 
              Baa    -0.0003    -0.171    -0.061    -0.057  0.8644 -0.1940  0.4639
    81 H(1)   Bbb    -0.0002    -0.091    -0.032    -0.030 -0.0696  0.8676  0.4924
              Bcc     0.0005     0.262     0.093     0.087 -0.4980 -0.4579  0.7364
 
              Baa    -0.0003    -0.151    -0.054    -0.050  0.6203 -0.5801 -0.5279
    82 H(1)   Bbb    -0.0003    -0.137    -0.049    -0.046  0.6540  0.0109  0.7565
              Bcc     0.0005     0.288     0.103     0.096  0.4331  0.8145 -0.3861
 
              Baa    -0.0003    -0.175    -0.062    -0.058  0.0773  0.4772  0.8754
    83 H(1)   Bbb    -0.0002    -0.092    -0.033    -0.031 -0.6035  0.7213 -0.3399
              Bcc     0.0005     0.267     0.095     0.089  0.7936  0.5020 -0.3438
 
              Baa    -0.0004    -0.228    -0.081    -0.076  0.7498 -0.1503  0.6444
    84 H(1)   Bbb     0.0000     0.015     0.005     0.005 -0.3209  0.7691  0.5528
              Bcc     0.0004     0.213     0.076     0.071  0.5787  0.6213 -0.5284
 
              Baa    -0.0008    -0.421    -0.150    -0.140  0.6174 -0.1037  0.7798
    85 H(1)   Bbb    -0.0004    -0.236    -0.084    -0.079  0.7169  0.4823 -0.5035
              Bcc     0.0012     0.656     0.234     0.219 -0.3239  0.8699  0.3721
 

 ---------------------------------------------------------------------------------

 No NMR shielding tensors so no spin-rotation constants.
 Leave Link  601 at Thu Nov  6 02:04:57 2025, MaxMem= 30870077440 cpu:             202.3 elap:               3.6
 (Enter /public/software/gauss/g16/l9999.exe)
 1\1\GINC-CU015\SP\UM062X\def2TZVPP\C40H39B1F2N2O1(1-,2)\BAIDING\06-Nov
 -2025\0\\#p M062X/DEF2TZVPP scrf=(solvent=water) em=GD3\\Energy calcul
 ation for M100024797_reduced\\-1,2\C,0,-4.118243,-2.051121,3.225832\C,
 0,-4.00612,-2.108518,1.691623\C,0,-2.902257,-1.238301,1.147691\C,0,-2.
 996873,0.146534,0.890751\C,0,-4.255391,0.950832,1.064192\C,0,-1.695005
 ,0.594791,0.518783\C,0,-1.194723,1.876448,0.137567\C,0,-2.125566,3.022
 948,0.005354\C,0,-3.109196,3.041004,-1.008534\C,0,-3.978707,4.111962,-
 1.141889\C,0,-3.902242,5.200588,-0.252027\C,0,-4.813032,6.339866,-0.36
 5835\O,0,-5.690551,6.459265,-1.222275\C,0,-2.931066,5.190564,0.763918\
 C,0,-2.053261,4.120364,0.886306\C,0,0.196366,2.048344,-0.11729\C,0,0.9
 42991,3.170501,-0.597253\C,0,0.430591,4.514081,-1.033106\C,0,2.291336,
 2.776728,-0.665771\C,0,3.429718,3.634055,-1.151208\C,0,4.043519,4.5324
 26,-0.063203\C,0,2.365998,1.421026,-0.261647\C,0,3.479831,0.510009,-0.
 203257\C,0,4.802476,0.819958,-0.106691\C,0,5.908755,-0.13503,-0.095281
 \C,0,5.752428,-1.528791,-0.269227\C,0,6.847192,-2.384917,-0.237171\C,0
 ,8.15322,-1.904335,-0.038549\C,0,9.33425,-2.842418,-0.035668\C,0,8.314
 382,-0.523031,0.132567\C,0,7.221155,0.340584,0.104149\N,0,1.081618,0.9
 90309,0.046882\B,0,0.696578,-0.430469,0.487592\F,0,1.302084,-0.745136,
 1.732783\F,0,1.15081,-1.386657,-0.454955\N,0,-0.832192,-0.492068,0.607
 168\C,0,-1.557636,-1.616556,0.962387\C,0,-0.878123,-2.873404,1.252092\
 C,0,-1.188298,-4.157424,0.93919\C,0,-2.195415,-4.738185,0.043843\C,0,-
 2.898111,-4.015591,-0.944228\C,0,-3.789581,-4.651408,-1.801931\C,0,-4.
 033538,-6.032413,-1.717356\C,0,-5.026734,-6.702654,-2.633152\C,0,-3.33
 0776,-6.756293,-0.745239\C,0,-2.428428,-6.126302,0.109781\H,0,-4.93331
 9,-2.690452,3.583386\H,0,-3.19022,-2.39367,3.696082\H,0,-4.311803,-1.0
 31572,3.575624\H,0,-3.84967,-3.146378,1.390523\H,0,-4.963955,-1.807547
 ,1.251278\H,0,-4.752643,1.180798,0.11388\H,0,-4.974749,0.401506,1.6773
 82\H,0,-4.067177,1.907702,1.559118\H,0,-3.16828,2.206186,-1.699796\H,0
 ,-4.721186,4.126256,-1.933743\H,0,-4.667769,7.131164,0.394963\H,0,-2.8
 76246,6.02573,1.45765\H,0,-1.309756,4.11686,1.676979\H,0,-0.496494,4.4
 34434,-1.607162\H,0,0.223629,5.186666,-0.192022\H,0,1.168133,5.013476,
 -1.667814\H,0,4.211028,2.998512,-1.580392\H,0,3.077835,4.274072,-1.969
 078\H,0,4.866583,5.131437,-0.468442\H,0,3.295241,5.220802,0.344075\H,0
 ,4.435615,3.940411,0.770682\H,0,3.202624,-0.539034,-0.235837\H,0,5.104
 275,1.857734,-0.000193\H,0,4.764188,-1.947925,-0.432582\H,0,6.68947,-3
 .452547,-0.372138\H,0,9.602807,-3.148613,-1.054921\H,0,10.216228,-2.37
 1503,0.407769\H,0,9.117015,-3.758155,0.524344\H,0,9.310829,-0.11784,0.
 291366\H,0,7.378587,1.407468,0.242858\H,0,0.04043,-2.745867,1.822795\H
 ,0,-0.541048,-4.908119,1.391356\H,0,-2.731827,-2.948863,-1.046552\H,0,
 -4.306388,-4.066003,-2.558815\H,0,-4.941156,-6.328069,-3.658525\H,0,-4
 .884619,-7.786901,-2.650928\H,0,-6.05751,-6.511275,-2.308594\H,0,-3.48
 7247,-7.828881,-0.661139\H,0,-1.887291,-6.716868,0.844944\\Version=ES6
 4L-G16RevA.03\State=2-A\HF=-1957.2892714\S2=0.783228\S2-1=0.\S2A=0.750
 874\RMSD=2.558e-09\Dipole=0.092804,-0.4095238,-0.0632478\Quadrupole=-1
 0.1252923,5.8010656,4.3242267,24.2219195,-5.2641817,14.7633484\PG=C01 
 [X(C40H39B1F2N2O1)]\\@


 I do not feel obliged to believe that the same God who
 has endowed us with sense, reason, and intellect has
 intended us to forgo their use.
                   --Galileo Galilei
 Job cpu time:       1 days 17 hours  4 minutes 45.2 seconds.
 Elapsed time:       0 days  0 hours 38 minutes 55.2 seconds.
 File lengths (MBytes):  RWF=   4140 Int=      0 D2E=      0 Chk=    271 Scr=      1
 Normal termination of Gaussian 16 at Thu Nov  6 02:04:58 2025.
