 Entering Gaussian System, Link 0=g16
 Input=M100034776_reduced_sp.gjf
 Output=M100034776_reduced_sp.log
 Initial command:
 /work/home/accqbws0vm/apprepo/gaussian/16-hy/scripts/../app/g16/l1.exe "/work/home/accqbws0vm/1010_second_energy/tmp_M100034776_reduced_sp_25874611/Gau-36962.inp" -scrdir="/work/home/accqbws0vm/1010_second_energy/tmp_M100034776_reduced_sp_25874611/"
 Entering Link 1 = /work/home/accqbws0vm/apprepo/gaussian/16-hy/scripts/../app/g16/l1.exe PID=     36963.
  
 Copyright (c) 1988,1990,1992,1993,1995,1998,2003,2009,2016,
            Gaussian, Inc.  All Rights Reserved.
  
 This is part of the Gaussian(R) 16 program.  It is based on
 the Gaussian(R) 09 system (copyright 2009, Gaussian, Inc.),
 the Gaussian(R) 03 system (copyright 2003, Gaussian, Inc.),
 the Gaussian(R) 98 system (copyright 1998, Gaussian, Inc.),
 the Gaussian(R) 94 system (copyright 1995, Gaussian, Inc.),
 the Gaussian 92(TM) system (copyright 1992, Gaussian, Inc.),
 the Gaussian 90(TM) system (copyright 1990, Gaussian, Inc.),
 the Gaussian 88(TM) system (copyright 1988, Gaussian, Inc.),
 the Gaussian 86(TM) system (copyright 1986, Carnegie Mellon
 University), and the Gaussian 82(TM) system (copyright 1983,
 Carnegie Mellon University). Gaussian is a federally registered
 trademark of Gaussian, Inc.
  
 This software contains proprietary and confidential information,
 including trade secrets, belonging to Gaussian, Inc.
  
 This software is provided under written license and may be
 used, copied, transmitted, or stored only in accord with that
 written license.
  
 The following legend is applicable only to US Government
 contracts under FAR:
  
                    RESTRICTED RIGHTS LEGEND
  
 Use, reproduction and disclosure by the US Government is
 subject to restrictions as set forth in subparagraphs (a)
 and (c) of the Commercial Computer Software - Restricted
 Rights clause in FAR 52.227-19.
  
 Gaussian, Inc.
 340 Quinnipiac St., Bldg. 40, Wallingford CT 06492
  
  
 ---------------------------------------------------------------
 Warning -- This program may not be used in any manner that
 competes with the business of Gaussian, Inc. or will provide
 assistance to any competitor of Gaussian, Inc.  The licensee
 of this program is prohibited from giving any competitor of
 Gaussian, Inc. access to this program.  By using this program,
 the user acknowledges that Gaussian, Inc. is engaged in the
 business of creating and licensing software in the field of
 computational chemistry and represents and warrants to the
 licensee that it is not a competitor of Gaussian, Inc. and that
 it will not use this program in any manner prohibited above.
 ---------------------------------------------------------------
  

 Cite this work as:
 Gaussian 16, Revision A.03,
 M. J. Frisch, G. W. Trucks, H. B. Schlegel, G. E. Scuseria, 
 M. A. Robb, J. R. Cheeseman, G. Scalmani, V. Barone, 
 G. A. Petersson, H. Nakatsuji, X. Li, M. Caricato, A. V. Marenich, 
 J. Bloino, B. G. Janesko, R. Gomperts, B. Mennucci, H. P. Hratchian, 
 J. V. Ortiz, A. F. Izmaylov, J. L. Sonnenberg, D. Williams-Young, 
 F. Ding, F. Lipparini, F. Egidi, J. Goings, B. Peng, A. Petrone, 
 T. Henderson, D. Ranasinghe, V. G. Zakrzewski, J. Gao, N. Rega, 
 G. Zheng, W. Liang, M. Hada, M. Ehara, K. Toyota, R. Fukuda, 
 J. Hasegawa, M. Ishida, T. Nakajima, Y. Honda, O. Kitao, H. Nakai, 
 T. Vreven, K. Throssell, J. A. Montgomery, Jr., J. E. Peralta, 
 F. Ogliaro, M. J. Bearpark, J. J. Heyd, E. N. Brothers, K. N. Kudin, 
 V. N. Staroverov, T. A. Keith, R. Kobayashi, J. Normand, 
 K. Raghavachari, A. P. Rendell, J. C. Burant, S. S. Iyengar, 
 J. Tomasi, M. Cossi, J. M. Millam, M. Klene, C. Adamo, R. Cammi, 
 J. W. Ochterski, R. L. Martin, K. Morokuma, O. Farkas, 
 J. B. Foresman, and D. J. Fox, Gaussian, Inc., Wallingford CT, 2016.
 
 ******************************************
 Gaussian 16:  ES64L-G16RevA.03 25-Dec-2016
                10-Oct-2025 
 ******************************************
 %nprocshared=64
 Will use up to   64 processors via shared memory.
 %mem=230GB
 %chk=M100034776_reduced_sp.chk
 ----------------------------------------------
 #p M062X/DEF2TZVPP scrf=(solvent=water) em=GD3
 ----------------------------------------------
 1/38=1,172=1/1;
 2/12=2,17=6,18=5,40=1/2;
 3/5=44,7=202,11=2,25=1,30=1,70=2201,72=1,74=-55,124=31/1,2,3;
 4//1;
 5/5=2,38=5,53=1/2;
 6/7=2,8=2,9=2,10=2,28=1/1;
 99/5=1,9=1/99;
 Leave Link    1 at Fri Oct 10 19:12:50 2025, MaxMem= 30870077440 cpu:               6.1 elap:               0.1
 (Enter /work/home/accqbws0vm/apprepo/gaussian/16-hy/scripts/../app/g16/l101.exe)
 -----------------------------------------
 Energy calculation for M100034776_reduced
 -----------------------------------------
 Symbolic Z-matrix:
 Charge = -1 Multiplicity = 2
 C                     0.86405  -5.4283    0.84685 
 C                     0.91101  -4.88491  -0.59187 
 C                     0.8158   -3.38364  -0.67437 
 C                    -0.32953  -2.6555   -0.9996 
 C                    -1.65885  -3.24549  -1.3671 
 C                     0.01295  -1.26392  -0.90586 
 C                    -0.74322  -0.0966   -1.11658 
 C                    -2.19016  -0.20931  -1.47314 
 C                    -3.15936  -0.39096  -0.47799 
 C                    -4.50889  -0.48718  -0.81201 
 C                    -4.91567  -0.41192  -2.15238 
 C                    -6.35072  -0.49128  -2.5875 
 O                    -6.70333  -0.08558  -3.71218 
 N                    -7.23571  -1.02436  -1.72245 
 C                    -8.66421  -1.09155  -2.02239 
 C                    -9.44963  -1.71264  -0.85993 
 C                    -9.37527  -0.92395   0.42984 
 C                    -8.61893  -1.37594   1.52478 
 C                    -8.52237  -0.64355   2.70329 
 C                    -9.19599   0.59208   2.81968 
 N                    -9.10519   1.34233   3.99307 
 O                    -9.72316   2.4875    4.08299 
 O                    -8.40024   0.89732   4.99621 
 C                    -9.96806   1.05744   1.73004 
 C                    -10.04739   0.30577   0.56637 
 C                    -3.94447  -0.22528  -3.14553 
 C                    -2.59689  -0.12544  -2.812 
 C                    -0.16252   1.17913  -0.98821 
 C                    -0.75619   2.48557  -1.02032 
 C                    -2.19258   2.85417  -1.24738 
 C                     0.26649   3.3974   -0.77401 
 C                     0.14053   4.8958   -0.68659 
 C                    -0.11927   5.40344   0.74225 
 C                     1.47816   2.66069  -0.60715 
 C                     2.75015   3.29653  -0.35647 
 C                     4.00552   2.81038  -0.5341 
 C                     5.24755   3.52338  -0.25952 
 C                     5.31306   4.80289   0.32717 
 C                     6.52773   5.4377    0.5671 
 C                     7.7277    4.79653   0.22203 
 O                     8.97205   5.32849   0.41623 
 C                     9.0677    6.6263    1.01362 
 C                     7.68995   3.52039  -0.36079 
 C                     6.47149   2.90137  -0.59311 
 N                     1.20557   1.32426  -0.73123 
 B                     2.17527   0.13556  -0.51587 
 F                     3.12624   0.07256  -1.55574 
 F                     2.84245   0.28188   0.71048 
 N                     1.34649  -1.1751   -0.52484 
 C                     1.85186  -2.43979  -0.37752 
 C                     3.22176  -2.6149    0.04284 
 C                     3.93806  -3.76814   0.08462 
 C                     5.32617  -3.89842   0.51213 
 C                     6.12611  -2.81474   0.94462 
 C                     7.43914  -3.00574   1.33821 
 C                     8.00966  -4.29154   1.31477 
 O                     9.31211  -4.36993   1.72187 
 C                     9.94605  -5.65369   1.7107 
 C                     7.2415   -5.38254   0.89059 
 C                     5.92072  -5.1741    0.49769 
 H                    -0.07951  -5.15761   1.33172 
 H                     0.94511  -6.52039   0.84953 
 H                     1.67971  -5.02787   1.4564 
 H                     1.81998  -5.23532  -1.09111 
 H                     0.08498  -5.32559  -1.15689 
 H                    -2.40534  -3.08395  -0.58266 
 H                    -2.06002  -2.80719  -2.28422 
 H                    -1.57526  -4.32268  -1.52183 
 H                    -2.85767  -0.44487   0.5631 
 H                    -5.23407  -0.59538  -0.01144 
 H                    -6.9201   -1.3683   -0.8263 
 H                    -9.03545  -0.08258  -2.2347 
 H                    -8.81683  -1.68565  -2.93042 
 H                    -10.49062  -1.79512  -1.19324 
 H                    -9.08911  -2.73377  -0.69097 
 H                    -8.09798  -2.32809   1.45295 
 H                    -7.9365   -1.00822   3.5374 
 H                    -10.49431   1.99918   1.82014 
 H                    -10.64859   0.67846  -0.25991 
 H                    -4.25733  -0.15787  -4.18158 
 H                    -1.855     0.01664  -3.59146 
 H                    -2.8569    2.36637  -0.52843 
 H                    -2.32772   3.93255  -1.14407 
 H                    -2.53882   2.56817  -2.24504 
 H                     1.04774   5.36688  -1.07876 
 H                    -0.67358   5.22964  -1.33782 
 H                     0.69364   5.11775   1.41808 
 H                    -0.20363   6.49528   0.75673 
 H                    -1.04864   4.98642   1.14403 
 H                     2.64407   4.32481  -0.0232 
 H                     4.13371   1.81475  -0.94223 
 H                     4.4008    5.31802   0.61089 
 H                     6.53319   6.4207    1.02189 
 H                     8.63872   6.63245   2.02121 
 H                     10.13395   6.84761   1.07176 
 H                     8.57123   7.38428   0.3985 
 H                     8.62447   3.03358  -0.62086 
 H                     6.45534   1.91271  -1.04351 
 H                     3.70804  -1.70074   0.36112 
 H                     3.48139  -4.70116  -0.2252 
 H                     5.71713  -1.81002   0.97208 
 H                     8.04887  -2.17082   1.66872 
 H                     9.43896  -6.35267   2.38421 
 H                     9.97412  -6.07335   0.69952 
 H                     10.96438  -5.48464   2.06228 
 H                     7.65647  -6.38258   0.86298 
 H                     5.33085  -6.02575   0.16961 
 
 ITRead=  0  0  0  0  0  0  0  0  0  0  0  0  0  0  0  0  0  0  0  0
 ITRead=  0  0  0  0  0  0  0  0  0  0  0  0  0  0  0  0  0  0  0  0
 ITRead=  0  0  0  0  0  0  0  0  0  0  0  0  0  0  0  0  0  0  0  0
 ITRead=  0  0  0  0  0  0  0  0  0  0  0  0  0  0  0  0  0  0  0  0
 ITRead=  0  0  0  0  0  0  0  0  0  0  0  0  0  0  0  0  0  0  0  0
 ITRead=  0  0  0  0  0  0  0
 MicOpt= -1 -1 -1 -1 -1 -1 -1 -1 -1 -1 -1 -1 -1 -1 -1 -1 -1 -1 -1 -1
 MicOpt= -1 -1 -1 -1 -1 -1 -1 -1 -1 -1 -1 -1 -1 -1 -1 -1 -1 -1 -1 -1
 MicOpt= -1 -1 -1 -1 -1 -1 -1 -1 -1 -1 -1 -1 -1 -1 -1 -1 -1 -1 -1 -1
 MicOpt= -1 -1 -1 -1 -1 -1 -1 -1 -1 -1 -1 -1 -1 -1 -1 -1 -1 -1 -1 -1
 MicOpt= -1 -1 -1 -1 -1 -1 -1 -1 -1 -1 -1 -1 -1 -1 -1 -1 -1 -1 -1 -1
 MicOpt= -1 -1 -1 -1 -1 -1 -1
 NAtoms=    107 NQM=      107 NQMF=       0 NMMI=      0 NMMIF=      0
                NMic=       0 NMicF=      0.
                    Isotopes and Nuclear Properties:
 (Nuclear quadrupole moments (NQMom) in fm**2, nuclear magnetic moments (NMagM)
  in nuclear magnetons)

  Atom         1           2           3           4           5           6           7           8           9          10
 IAtWgt=          12          12          12          12          12          12          12          12          12          12
 AtmWgt=  12.0000000  12.0000000  12.0000000  12.0000000  12.0000000  12.0000000  12.0000000  12.0000000  12.0000000  12.0000000
 NucSpn=           0           0           0           0           0           0           0           0           0           0
 AtZEff=  -0.0000000  -0.0000000  -0.0000000  -0.0000000  -0.0000000  -0.0000000  -0.0000000  -0.0000000  -0.0000000  -0.0000000
 NQMom=    0.0000000   0.0000000   0.0000000   0.0000000   0.0000000   0.0000000   0.0000000   0.0000000   0.0000000   0.0000000
 NMagM=    0.0000000   0.0000000   0.0000000   0.0000000   0.0000000   0.0000000   0.0000000   0.0000000   0.0000000   0.0000000
 AtZNuc=   6.0000000   6.0000000   6.0000000   6.0000000   6.0000000   6.0000000   6.0000000   6.0000000   6.0000000   6.0000000

  Atom        11          12          13          14          15          16          17          18          19          20
 IAtWgt=          12          12          16          14          12          12          12          12          12          12
 AtmWgt=  12.0000000  12.0000000  15.9949146  14.0030740  12.0000000  12.0000000  12.0000000  12.0000000  12.0000000  12.0000000
 NucSpn=           0           0           0           2           0           0           0           0           0           0
 AtZEff=  -0.0000000  -0.0000000  -0.0000000  -0.0000000  -0.0000000  -0.0000000  -0.0000000  -0.0000000  -0.0000000  -0.0000000
 NQMom=    0.0000000   0.0000000   0.0000000   2.0440000   0.0000000   0.0000000   0.0000000   0.0000000   0.0000000   0.0000000
 NMagM=    0.0000000   0.0000000   0.0000000   0.4037610   0.0000000   0.0000000   0.0000000   0.0000000   0.0000000   0.0000000
 AtZNuc=   6.0000000   6.0000000   8.0000000   7.0000000   6.0000000   6.0000000   6.0000000   6.0000000   6.0000000   6.0000000

  Atom        21          22          23          24          25          26          27          28          29          30
 IAtWgt=          14          16          16          12          12          12          12          12          12          12
 AtmWgt=  14.0030740  15.9949146  15.9949146  12.0000000  12.0000000  12.0000000  12.0000000  12.0000000  12.0000000  12.0000000
 NucSpn=           2           0           0           0           0           0           0           0           0           0
 AtZEff=  -0.0000000  -0.0000000  -0.0000000  -0.0000000  -0.0000000  -0.0000000  -0.0000000  -0.0000000  -0.0000000  -0.0000000
 NQMom=    2.0440000   0.0000000   0.0000000   0.0000000   0.0000000   0.0000000   0.0000000   0.0000000   0.0000000   0.0000000
 NMagM=    0.4037610   0.0000000   0.0000000   0.0000000   0.0000000   0.0000000   0.0000000   0.0000000   0.0000000   0.0000000
 AtZNuc=   7.0000000   8.0000000   8.0000000   6.0000000   6.0000000   6.0000000   6.0000000   6.0000000   6.0000000   6.0000000

  Atom        31          32          33          34          35          36          37          38          39          40
 IAtWgt=          12          12          12          12          12          12          12          12          12          12
 AtmWgt=  12.0000000  12.0000000  12.0000000  12.0000000  12.0000000  12.0000000  12.0000000  12.0000000  12.0000000  12.0000000
 NucSpn=           0           0           0           0           0           0           0           0           0           0
 AtZEff=  -0.0000000  -0.0000000  -0.0000000  -0.0000000  -0.0000000  -0.0000000  -0.0000000  -0.0000000  -0.0000000  -0.0000000
 NQMom=    0.0000000   0.0000000   0.0000000   0.0000000   0.0000000   0.0000000   0.0000000   0.0000000   0.0000000   0.0000000
 NMagM=    0.0000000   0.0000000   0.0000000   0.0000000   0.0000000   0.0000000   0.0000000   0.0000000   0.0000000   0.0000000
 AtZNuc=   6.0000000   6.0000000   6.0000000   6.0000000   6.0000000   6.0000000   6.0000000   6.0000000   6.0000000   6.0000000

  Atom        41          42          43          44          45          46          47          48          49          50
 IAtWgt=          16          12          12          12          14          11          19          19          14          12
 AtmWgt=  15.9949146  12.0000000  12.0000000  12.0000000  14.0030740  11.0093053  18.9984032  18.9984032  14.0030740  12.0000000
 NucSpn=           0           0           0           0           2           3           1           1           2           0
 AtZEff=  -0.0000000  -0.0000000  -0.0000000  -0.0000000  -0.0000000  -0.0000000  -0.0000000  -0.0000000  -0.0000000  -0.0000000
 NQMom=    0.0000000   0.0000000   0.0000000   0.0000000   2.0440000   4.0590000   0.0000000   0.0000000   2.0440000   0.0000000
 NMagM=    0.0000000   0.0000000   0.0000000   0.0000000   0.4037610   2.6886370   2.6288670   2.6288670   0.4037610   0.0000000
 AtZNuc=   8.0000000   6.0000000   6.0000000   6.0000000   7.0000000   5.0000000   9.0000000   9.0000000   7.0000000   6.0000000

  Atom        51          52          53          54          55          56          57          58          59          60
 IAtWgt=          12          12          12          12          12          12          16          12          12          12
 AtmWgt=  12.0000000  12.0000000  12.0000000  12.0000000  12.0000000  12.0000000  15.9949146  12.0000000  12.0000000  12.0000000
 NucSpn=           0           0           0           0           0           0           0           0           0           0
 AtZEff=  -0.0000000  -0.0000000  -0.0000000  -0.0000000  -0.0000000  -0.0000000  -0.0000000  -0.0000000  -0.0000000  -0.0000000
 NQMom=    0.0000000   0.0000000   0.0000000   0.0000000   0.0000000   0.0000000   0.0000000   0.0000000   0.0000000   0.0000000
 NMagM=    0.0000000   0.0000000   0.0000000   0.0000000   0.0000000   0.0000000   0.0000000   0.0000000   0.0000000   0.0000000
 AtZNuc=   6.0000000   6.0000000   6.0000000   6.0000000   6.0000000   6.0000000   8.0000000   6.0000000   6.0000000   6.0000000

  Atom        61          62          63          64          65          66          67          68          69          70
 IAtWgt=           1           1           1           1           1           1           1           1           1           1
 AtmWgt=   1.0078250   1.0078250   1.0078250   1.0078250   1.0078250   1.0078250   1.0078250   1.0078250   1.0078250   1.0078250
 NucSpn=           1           1           1           1           1           1           1           1           1           1
 AtZEff=  -0.0000000  -0.0000000  -0.0000000  -0.0000000  -0.0000000  -0.0000000  -0.0000000  -0.0000000  -0.0000000  -0.0000000
 NQMom=    0.0000000   0.0000000   0.0000000   0.0000000   0.0000000   0.0000000   0.0000000   0.0000000   0.0000000   0.0000000
 NMagM=    2.7928460   2.7928460   2.7928460   2.7928460   2.7928460   2.7928460   2.7928460   2.7928460   2.7928460   2.7928460
 AtZNuc=   1.0000000   1.0000000   1.0000000   1.0000000   1.0000000   1.0000000   1.0000000   1.0000000   1.0000000   1.0000000

  Atom        71          72          73          74          75          76          77          78          79          80
 IAtWgt=           1           1           1           1           1           1           1           1           1           1
 AtmWgt=   1.0078250   1.0078250   1.0078250   1.0078250   1.0078250   1.0078250   1.0078250   1.0078250   1.0078250   1.0078250
 NucSpn=           1           1           1           1           1           1           1           1           1           1
 AtZEff=  -0.0000000  -0.0000000  -0.0000000  -0.0000000  -0.0000000  -0.0000000  -0.0000000  -0.0000000  -0.0000000  -0.0000000
 NQMom=    0.0000000   0.0000000   0.0000000   0.0000000   0.0000000   0.0000000   0.0000000   0.0000000   0.0000000   0.0000000
 NMagM=    2.7928460   2.7928460   2.7928460   2.7928460   2.7928460   2.7928460   2.7928460   2.7928460   2.7928460   2.7928460
 AtZNuc=   1.0000000   1.0000000   1.0000000   1.0000000   1.0000000   1.0000000   1.0000000   1.0000000   1.0000000   1.0000000

  Atom        81          82          83          84          85          86          87          88          89          90
 IAtWgt=           1           1           1           1           1           1           1           1           1           1
 AtmWgt=   1.0078250   1.0078250   1.0078250   1.0078250   1.0078250   1.0078250   1.0078250   1.0078250   1.0078250   1.0078250
 NucSpn=           1           1           1           1           1           1           1           1           1           1
 AtZEff=  -0.0000000  -0.0000000  -0.0000000  -0.0000000  -0.0000000  -0.0000000  -0.0000000  -0.0000000  -0.0000000  -0.0000000
 NQMom=    0.0000000   0.0000000   0.0000000   0.0000000   0.0000000   0.0000000   0.0000000   0.0000000   0.0000000   0.0000000
 NMagM=    2.7928460   2.7928460   2.7928460   2.7928460   2.7928460   2.7928460   2.7928460   2.7928460   2.7928460   2.7928460
 AtZNuc=   1.0000000   1.0000000   1.0000000   1.0000000   1.0000000   1.0000000   1.0000000   1.0000000   1.0000000   1.0000000

  Atom        91          92          93          94          95          96          97          98          99         100
 IAtWgt=           1           1           1           1           1           1           1           1           1           1
 AtmWgt=   1.0078250   1.0078250   1.0078250   1.0078250   1.0078250   1.0078250   1.0078250   1.0078250   1.0078250   1.0078250
 NucSpn=           1           1           1           1           1           1           1           1           1           1
 AtZEff=  -0.0000000  -0.0000000  -0.0000000  -0.0000000  -0.0000000  -0.0000000  -0.0000000  -0.0000000  -0.0000000  -0.0000000
 NQMom=    0.0000000   0.0000000   0.0000000   0.0000000   0.0000000   0.0000000   0.0000000   0.0000000   0.0000000   0.0000000
 NMagM=    2.7928460   2.7928460   2.7928460   2.7928460   2.7928460   2.7928460   2.7928460   2.7928460   2.7928460   2.7928460
 AtZNuc=   1.0000000   1.0000000   1.0000000   1.0000000   1.0000000   1.0000000   1.0000000   1.0000000   1.0000000   1.0000000

  Atom       101         102         103         104         105         106         107
 IAtWgt=           1           1           1           1           1           1           1
 AtmWgt=   1.0078250   1.0078250   1.0078250   1.0078250   1.0078250   1.0078250   1.0078250
 NucSpn=           1           1           1           1           1           1           1
 AtZEff=  -0.0000000  -0.0000000  -0.0000000  -0.0000000  -0.0000000  -0.0000000  -0.0000000
 NQMom=    0.0000000   0.0000000   0.0000000   0.0000000   0.0000000   0.0000000   0.0000000
 NMagM=    2.7928460   2.7928460   2.7928460   2.7928460   2.7928460   2.7928460   2.7928460
 AtZNuc=   1.0000000   1.0000000   1.0000000   1.0000000   1.0000000   1.0000000   1.0000000
 Leave Link  101 at Fri Oct 10 19:12:50 2025, MaxMem= 30870077440 cpu:               8.8 elap:               0.2
 (Enter /work/home/accqbws0vm/apprepo/gaussian/16-hy/scripts/../app/g16/l202.exe)
 Stoichiometry    C48H47BF2N4O5(1-,2)
 Framework group  C1[X(C48H47BF2N4O5)]
 Deg. of freedom   315
 Full point group                 C1      NOp   1
 Largest Abelian subgroup         C1      NOp   1
 Largest concise Abelian subgroup C1      NOp   1
                         Standard orientation:                         
 ---------------------------------------------------------------------
 Center     Atomic      Atomic             Coordinates (Angstroms)
 Number     Number       Type             X           Y           Z
 ---------------------------------------------------------------------
      1          6           0        0.864051   -5.428295    0.846848
      2          6           0        0.911007   -4.884914   -0.591865
      3          6           0        0.815801   -3.383640   -0.674365
      4          6           0       -0.329532   -2.655504   -0.999600
      5          6           0       -1.658853   -3.245494   -1.367098
      6          6           0        0.012951   -1.263922   -0.905855
      7          6           0       -0.743218   -0.096595   -1.116578
      8          6           0       -2.190163   -0.209311   -1.473139
      9          6           0       -3.159356   -0.390957   -0.477985
     10          6           0       -4.508888   -0.487176   -0.812005
     11          6           0       -4.915672   -0.411921   -2.152375
     12          6           0       -6.350720   -0.491282   -2.587498
     13          8           0       -6.703328   -0.085581   -3.712175
     14          7           0       -7.235709   -1.024361   -1.722453
     15          6           0       -8.664208   -1.091552   -2.022395
     16          6           0       -9.449625   -1.712644   -0.859929
     17          6           0       -9.375270   -0.923953    0.429841
     18          6           0       -8.618933   -1.375937    1.524784
     19          6           0       -8.522371   -0.643552    2.703288
     20          6           0       -9.195985    0.592081    2.819683
     21          7           0       -9.105185    1.342329    3.993074
     22          8           0       -9.723162    2.487499    4.082990
     23          8           0       -8.400244    0.897322    4.996214
     24          6           0       -9.968062    1.057440    1.730040
     25          6           0      -10.047391    0.305766    0.566373
     26          6           0       -3.944469   -0.225281   -3.145526
     27          6           0       -2.596894   -0.125444   -2.812002
     28          6           0       -0.162517    1.179128   -0.988211
     29          6           0       -0.756194    2.485571   -1.020322
     30          6           0       -2.192584    2.854166   -1.247377
     31          6           0        0.266489    3.397402   -0.774012
     32          6           0        0.140526    4.895801   -0.686590
     33          6           0       -0.119267    5.403440    0.742249
     34          6           0        1.478156    2.660688   -0.607145
     35          6           0        2.750154    3.296535   -0.356470
     36          6           0        4.005521    2.810381   -0.534103
     37          6           0        5.247549    3.523376   -0.259516
     38          6           0        5.313057    4.802894    0.327165
     39          6           0        6.527729    5.437700    0.567099
     40          6           0        7.727696    4.796532    0.222025
     41          8           0        8.972048    5.328491    0.416227
     42          6           0        9.067700    6.626299    1.013617
     43          6           0        7.689949    3.520393   -0.360793
     44          6           0        6.471489    2.901372   -0.593114
     45          7           0        1.205573    1.324264   -0.731230
     46          5           0        2.175271    0.135557   -0.515870
     47          9           0        3.126238    0.072560   -1.555739
     48          9           0        2.842445    0.281877    0.710479
     49          7           0        1.346485   -1.175101   -0.524840
     50          6           0        1.851858   -2.439790   -0.377521
     51          6           0        3.221764   -2.614899    0.042841
     52          6           0        3.938055   -3.768140    0.084623
     53          6           0        5.326172   -3.898420    0.512128
     54          6           0        6.126114   -2.814741    0.944623
     55          6           0        7.439135   -3.005736    1.338211
     56          6           0        8.009658   -4.291543    1.314774
     57          8           0        9.312109   -4.369934    1.721870
     58          6           0        9.946048   -5.653692    1.710695
     59          6           0        7.241503   -5.382542    0.890590
     60          6           0        5.920719   -5.174103    0.497693
     61          1           0       -0.079513   -5.157606    1.331723
     62          1           0        0.945105   -6.520389    0.849525
     63          1           0        1.679710   -5.027868    1.456404
     64          1           0        1.819977   -5.235318   -1.091112
     65          1           0        0.084979   -5.325585   -1.156887
     66          1           0       -2.405344   -3.083953   -0.582660
     67          1           0       -2.060022   -2.807190   -2.284224
     68          1           0       -1.575257   -4.322676   -1.521827
     69          1           0       -2.857673   -0.444869    0.563098
     70          1           0       -5.234070   -0.595375   -0.011442
     71          1           0       -6.920099   -1.368301   -0.826296
     72          1           0       -9.035447   -0.082579   -2.234696
     73          1           0       -8.816827   -1.685654   -2.930416
     74          1           0      -10.490621   -1.795124   -1.193242
     75          1           0       -9.089114   -2.733770   -0.690970
     76          1           0       -8.097983   -2.328090    1.452954
     77          1           0       -7.936498   -1.008218    3.537401
     78          1           0      -10.494309    1.999176    1.820135
     79          1           0      -10.648591    0.678459   -0.259906
     80          1           0       -4.257330   -0.157870   -4.181577
     81          1           0       -1.855002    0.016637   -3.591463
     82          1           0       -2.856901    2.366370   -0.528425
     83          1           0       -2.327717    3.932554   -1.144072
     84          1           0       -2.538816    2.568165   -2.245036
     85          1           0        1.047735    5.366880   -1.078759
     86          1           0       -0.673577    5.229638   -1.337822
     87          1           0        0.693641    5.117746    1.418082
     88          1           0       -0.203632    6.495276    0.756729
     89          1           0       -1.048637    4.986415    1.144027
     90          1           0        2.644071    4.324814   -0.023195
     91          1           0        4.133711    1.814754   -0.942234
     92          1           0        4.400804    5.318016    0.610890
     93          1           0        6.533187    6.420699    1.021895
     94          1           0        8.638723    6.632445    2.021213
     95          1           0       10.133952    6.847605    1.071757
     96          1           0        8.571226    7.384278    0.398497
     97          1           0        8.624474    3.033585   -0.620855
     98          1           0        6.455337    1.912708   -1.043511
     99          1           0        3.708044   -1.700739    0.361121
    100          1           0        3.481387   -4.701157   -0.225202
    101          1           0        5.717128   -1.810023    0.972083
    102          1           0        8.048873   -2.170815    1.668722
    103          1           0        9.438961   -6.352666    2.384210
    104          1           0        9.974115   -6.073348    0.699515
    105          1           0       10.964378   -5.484638    2.062284
    106          1           0        7.656473   -6.382584    0.862980
    107          1           0        5.330851   -6.025747    0.169610
 ---------------------------------------------------------------------
 Rotational constants (GHZ):           0.0485808           0.0159959           0.0135612
 Leave Link  202 at Fri Oct 10 19:12:50 2025, MaxMem= 30870077440 cpu:               0.8 elap:               0.0
 (Enter /work/home/accqbws0vm/apprepo/gaussian/16-hy/scripts/../app/g16/l301.exe)
 Standard basis: def2TZVPP (5D, 7F)
 Ernie: Thresh=  0.10000D-02 Tol=  0.10000D-05 Strict=F.
 There are  2865 symmetry adapted cartesian basis functions of A   symmetry.
 There are  2518 symmetry adapted basis functions of A   symmetry.
  2518 basis functions,  3859 primitive gaussians,  2865 cartesian basis functions
   214 alpha electrons      213 beta electrons
       nuclear repulsion energy      7770.2738190062 Hartrees.
 IExCor= 4336 DFT=T Ex+Corr=M062X ExCW=0 ScaHFX=  0.540000
 ScaDFX=  1.000000  1.000000  1.000000  1.000000 ScalE2=  1.000000  1.000000
 IRadAn=      5 IRanWt=     -1 IRanGd=            0 ICorTp=0 IEmpDi=131
 NAtoms=  107 NActive=  107 NUniq=  107 SFac= 1.00D+00 NAtFMM=   60 NAOKFM=T Big=T
 Integral buffers will be    131072 words long.
 Raffenetti 2 integral format.
 Two-electron integral symmetry is turned on.
 R6Disp:  Grimme-D3 Dispersion energy=       -0.0098254834 Hartrees.
 Nuclear repulsion after empirical dispersion term =     7770.2639935228 Hartrees.
 ------------------------------------------------------------------------------
 Polarizable Continuum Model (PCM)
 =================================
 Model                : PCM.
 Atomic radii         : UFF (Universal Force Field).
 Polarization charges : Total charges.
 Charge compensation  : None.
 Solution method      : On-the-fly selection.
 Cavity type          : Scaled VdW (van der Waals Surface) (Alpha=1.100).
 Cavity algorithm     : GePol (No added spheres)
                        Default sphere list used, NSphG=  107.
                        Lebedev-Laikov grids with approx.  5.0 points / Ang**2.
                        Smoothing algorithm: York/Karplus (Gamma=1.0000).
                        Polarization charges: spherical gaussians, with
                                              point-specific exponents (IZeta= 3).
                        Self-potential: point-specific (ISelfS= 7).
                        Self-field    : sphere-specific E.n sum rule (ISelfD= 2).
 Solvent              : Water, Eps=  78.355300 Eps(inf)=   1.777849
 ------------------------------------------------------------------------------
 GePol: Number of generator spheres                  =     107
 GePol: Total number of spheres                      =     107
 GePol: Number of exposed spheres                    =     107 (100.00%)
 GePol: Number of points                             =    7444
 GePol: Average weight of points                     =       0.13
 GePol: Minimum weight of points                     =   0.38D-11
 GePol: Maximum weight of points                     =    0.20577
 GePol: Number of points with low weight             =     490
 GePol: Fraction of low-weight points (<1% of avg)   =       6.58%
 GePol: Cavity surface area                          =    944.577 Ang**2
 GePol: Cavity volume                                =   1097.911 Ang**3
 Leave Link  301 at Fri Oct 10 19:12:51 2025, MaxMem= 30870077440 cpu:               8.7 elap:               0.2
 (Enter /work/home/accqbws0vm/apprepo/gaussian/16-hy/scripts/../app/g16/l302.exe)
 NPDir=0 NMtPBC=     1 NCelOv=     1 NCel=       1 NClECP=     1 NCelD=      1
         NCelK=      1 NCelE2=     1 NClLst=     1 CellRange=     0.0.
 One-electron integrals computed using PRISM.
 One-electron integral symmetry used in STVInt
   1 Symmetry operations used in ECPInt.
 ECPInt:  NShTT=  444153 NPrTT= 1244137 LenC2=  236041 LenP2D=  438144.
 LDataN:  DoStor=T MaxTD1= 6 Len=  172
 Number of processors reduced to  63 by ecpmxn.
 NBasis=  2518 RedAO= T EigKep=  3.12D-06  NBF=  2518
 NBsUse=  2518 1.00D-06 EigRej= -1.00D+00 NBFU=  2518
 Precomputing XC quadrature grid using
 IXCGrd= 4 IRadAn=           5 IRanWt=          -1 IRanGd=           0 AccXCQ= 0.00D+00.
 Generated NRdTot=       0 NPtTot=           0 NUsed=           0 NTot=          32
 NSgBfM=  2284  2272  2272  2281  2284 MxSgAt=   107 MxSgA2=   107.
 Leave Link  302 at Fri Oct 10 19:13:16 2025, MaxMem= 30870077440 cpu:            1588.5 elap:              24.9
 (Enter /work/home/accqbws0vm/apprepo/gaussian/16-hy/scripts/../app/g16/l303.exe)
 DipDrv:  MaxL=1.
 Leave Link  303 at Fri Oct 10 19:13:17 2025, MaxMem= 30870077440 cpu:              54.2 elap:               1.0
 (Enter /work/home/accqbws0vm/apprepo/gaussian/16-hy/scripts/../app/g16/l401.exe)
 ExpMin= 6.06D-02 ExpMax= 3.55D+04 ExpMxC= 1.21D+03 IAcc=3 IRadAn=         5 AccDes= 0.00D+00
 Harris functional with IExCor= 1009 and IRadAn=       5 diagonalized for initial guess.
 HarFok:  IExCor= 1009 AccDes= 0.00D+00 IRadAn=         5 IDoV= 1 UseB2=F ITyADJ=14
 ICtDFT=  3500011 ScaDFX=  1.000000  1.000000  1.000000  1.000000
 FoFCou: FMM=F IPFlag=           0 FMFlag=      100000 FMFlg1=        2001
         NFxFlg=           0 DoJE=T BraDBF=F KetDBF=T FulRan=T
         wScrn=  0.000000 ICntrl=       500 IOpCl=  0 I1Cent=   200000004 NGrid=           0
         NMat0=    1 NMatS0=      1 NMatT0=    0 NMatD0=    1 NMtDS0=    0 NMtDT0=    0
 Petite list used in FoFCou.
 Harris En= -2676.08617568312    
 JPrj=0 DoOrth=F DoCkMO=F.
 Initial guess <Sx>= 0.0000 <Sy>= 0.0000 <Sz>= 0.5000 <S**2>= 0.7500 S= 0.5000
 Leave Link  401 at Fri Oct 10 19:13:36 2025, MaxMem= 30870077440 cpu:            1204.8 elap:              18.9
 (Enter /work/home/accqbws0vm/apprepo/gaussian/16-hy/scripts/../app/g16/l502.exe)
 Integral symmetry usage will be decided dynamically.
 UHF open shell SCF:
 Using DIIS extrapolation, IDIIS=  1040.
 NGot= 30870077440 LenX= 30853453491 LenY= 30845242401
 Requested convergence on RMS density matrix=1.00D-08 within 128 cycles.
 Requested convergence on MAX density matrix=1.00D-06.
 Requested convergence on             energy=1.00D-06.
 No special actions if energy rises.
 Fock matrices will be formed incrementally for  20 cycles.

 Cycle   1  Pass 1  IDiag  1:
 FoFJK:  IHMeth= 1 ICntrl=       0 DoSepK=F KAlg= 0 I1Cent=           0 FoldK=F
 IRaf= 490000000 NMat=       1 IRICut=       1 DoRegI=T DoRafI=F ISym2E= 0 IDoP0=0 IntGTp=1.
 FoFCou: FMM=T IPFlag=           0 FMFlag=      100000 FMFlg1=        2001
         NFxFlg=           0 DoJE=F BraDBF=F KetDBF=F FulRan=T
         wScrn=  0.000000 ICntrl=         0 IOpCl=  1 I1Cent=           0 NGrid=           0
         NMat0=    1 NMatS0=      1 NMatT0=    0 NMatD0=    1 NMtDS0=    0 NMtDT0=    0
 Symmetry not used in FoFCou.
 FMM levels:  10  Number of levels for PrismC:   9
 Inv3:  Mode=1 IEnd=   166239408.
 Iteration    1 A*A^-1 deviation from unit magnitude is 3.55D-15 for   6007.
 Iteration    1 A*A^-1 deviation from orthogonality  is 2.13D-15 for   6720   6633.
 Iteration    1 A^-1*A deviation from unit magnitude is 4.00D-15 for   6007.
 Iteration    1 A^-1*A deviation from orthogonality  is 1.32D-13 for   3669   3615.
 E= -2675.71786340331    
 DIIS: error= 2.87D-02 at cycle   1 NSaved=   1.
 NSaved= 1 IEnMin= 1 EnMin= -2675.71786340331     IErMin= 1 ErrMin= 2.87D-02
 ErrMax= 2.87D-02  0.00D+00 EMaxC= 1.00D-01 BMatC= 7.79D+00 BMatP= 7.79D+00
 IDIUse=3 WtCom= 7.13D-01 WtEn= 2.87D-01
 Coeff-Com:  0.100D+01
 Coeff-En:   0.100D+01
 Coeff:      0.100D+01
 Gap=    -0.023 Goal=   None    Shift=    0.000
 Gap=     0.137 Goal=   None    Shift=    0.000
 GapD=   -0.023 DampG=0.250 DampE=0.500 DampFc=0.2500 IDamp=-1.
 Damping current iteration by 2.50D-01
 RMSDP=1.40D-03 MaxDP=4.21D-01              OVMax= 9.54D-01

 Cycle   2  Pass 1  IDiag  1:
 RMSU=  3.50D-04    CP:  9.92D-01
 E= -2676.22259982232     Delta-E=       -0.504736419010 Rises=F Damp=T
 DIIS: error= 1.10D-02 at cycle   2 NSaved=   2.
 NSaved= 2 IEnMin= 2 EnMin= -2676.22259982232     IErMin= 2 ErrMin= 1.10D-02
 ErrMax= 1.10D-02  0.00D+00 EMaxC= 1.00D-01 BMatC= 2.72D+00 BMatP= 7.79D+00
 IDIUse=3 WtCom= 8.90D-01 WtEn= 1.10D-01
 Coeff-Com: -0.105D+01 0.205D+01
 Coeff-En:   0.000D+00 0.100D+01
 Coeff:     -0.932D+00 0.193D+01
 Gap=    -0.135 Goal=   None    Shift=    0.000
 Gap=    -0.186 Goal=   None    Shift=    0.000
 RMSDP=8.85D-04 MaxDP=1.53D-01 DE=-5.05D-01 OVMax= 9.95D-01

 Cycle   3  Pass 1  IDiag  1:
 RMSU=  7.55D-04    CP:  9.88D-01  2.32D+00
 E= -2677.01246348523     Delta-E=       -0.789863662909 Rises=F Damp=F
 DIIS: error= 2.45D-02 at cycle   3 NSaved=   3.
 NSaved= 3 IEnMin= 3 EnMin= -2677.01246348523     IErMin= 2 ErrMin= 1.10D-02
 ErrMax= 2.45D-02  0.00D+00 EMaxC= 1.00D-01 BMatC= 1.05D+00 BMatP= 2.72D+00
 IDIUse=3 WtCom= 7.55D-01 WtEn= 2.45D-01
 Coeff-Com: -0.667D+00 0.116D+01 0.502D+00
 Coeff-En:   0.000D+00 0.000D+00 0.100D+01
 Coeff:     -0.503D+00 0.879D+00 0.624D+00
 Gap=     0.113 Goal=   None    Shift=    0.000
 Gap=     0.124 Goal=   None    Shift=    0.000
 RMSDP=5.20D-04 MaxDP=1.31D-01 DE=-7.90D-01 OVMax= 9.79D-01

 Cycle   4  Pass 1  IDiag  1:
 RMSU=  4.12D-04    CP:  9.74D-01  2.35D+00  5.85D-01
 E= -2677.18101220530     Delta-E=       -0.168548720073 Rises=F Damp=F
 DIIS: error= 1.92D-02 at cycle   4 NSaved=   4.
 NSaved= 4 IEnMin= 4 EnMin= -2677.18101220530     IErMin= 2 ErrMin= 1.10D-02
 ErrMax= 1.92D-02  0.00D+00 EMaxC= 1.00D-01 BMatC= 4.29D-01 BMatP= 1.05D+00
 IDIUse=3 WtCom= 8.08D-01 WtEn= 1.92D-01
 Coeff-Com: -0.146D+00 0.254D+00 0.390D+00 0.502D+00
 Coeff-En:   0.000D+00 0.000D+00 0.287D+00 0.713D+00
 Coeff:     -0.118D+00 0.205D+00 0.370D+00 0.542D+00
 Gap=     0.012 Goal=   None    Shift=    0.000
 Gap=     0.179 Goal=   None    Shift=    0.000
 RMSDP=1.51D-04 MaxDP=3.58D-02 DE=-1.69D-01 OVMax= 1.07D-01

 Cycle   5  Pass 1  IDiag  1:
 RMSU=  1.30D-04    CP:  9.77D-01  2.38D+00  6.51D-01  8.60D-01
 E= -2677.27602624218     Delta-E=       -0.095014036883 Rises=F Damp=F
 DIIS: error= 3.60D-03 at cycle   5 NSaved=   5.
 NSaved= 5 IEnMin= 5 EnMin= -2677.27602624218     IErMin= 5 ErrMin= 3.60D-03
 ErrMax= 3.60D-03  0.00D+00 EMaxC= 1.00D-01 BMatC= 2.01D-02 BMatP= 4.29D-01
 IDIUse=3 WtCom= 9.64D-01 WtEn= 3.60D-02
 Coeff-Com: -0.226D-01 0.425D-01 0.164D+00 0.158D+00 0.658D+00
 Coeff-En:   0.000D+00 0.000D+00 0.000D+00 0.000D+00 0.100D+01
 Coeff:     -0.217D-01 0.409D-01 0.158D+00 0.152D+00 0.671D+00
 Gap=     0.055 Goal=   None    Shift=    0.000
 Gap=     0.135 Goal=   None    Shift=    0.000
 RMSDP=7.02D-05 MaxDP=1.55D-02 DE=-9.50D-02 OVMax= 3.14D-02

 Cycle   6  Pass 1  IDiag  1:
 RMSU=  6.00D-05    CP:  9.78D-01  2.36D+00  6.83D-01  8.12D-01  1.13D+00
 E= -2677.28037756938     Delta-E=       -0.004351327196 Rises=F Damp=F
 DIIS: error= 2.89D-03 at cycle   6 NSaved=   6.
 NSaved= 6 IEnMin= 6 EnMin= -2677.28037756938     IErMin= 6 ErrMin= 2.89D-03
 ErrMax= 2.89D-03  0.00D+00 EMaxC= 1.00D-01 BMatC= 8.83D-03 BMatP= 2.01D-02
 IDIUse=3 WtCom= 9.71D-01 WtEn= 2.89D-02
 Coeff-Com:  0.895D-02-0.110D-01 0.199D-01-0.794D-01 0.333D+00 0.728D+00
 Coeff-En:   0.000D+00 0.000D+00 0.000D+00 0.000D+00 0.000D+00 0.100D+01
 Coeff:      0.869D-02-0.107D-01 0.193D-01-0.771D-01 0.324D+00 0.736D+00
 Gap=     0.083 Goal=   None    Shift=    0.000
 Gap=     0.135 Goal=   None    Shift=    0.000
 RMSDP=5.18D-05 MaxDP=2.82D-02 DE=-4.35D-03 OVMax= 2.05D-02

 Cycle   7  Pass 1  IDiag  1:
 RMSU=  3.44D-05    CP:  9.79D-01  2.37D+00  7.05D-01  7.81D-01  1.37D+00
                    CP:  1.14D+00
 E= -2677.28293292162     Delta-E=       -0.002555352237 Rises=F Damp=F
 DIIS: error= 4.53D-04 at cycle   7 NSaved=   7.
 NSaved= 7 IEnMin= 7 EnMin= -2677.28293292162     IErMin= 7 ErrMin= 4.53D-04
 ErrMax= 4.53D-04  0.00D+00 EMaxC= 1.00D-01 BMatC= 6.93D-04 BMatP= 8.83D-03
 IDIUse=3 WtCom= 9.95D-01 WtEn= 4.53D-03
 Coeff-Com: -0.830D-03 0.206D-02 0.212D-02-0.308D-01 0.323D-02 0.228D+00
 Coeff-Com:  0.796D+00
 Coeff-En:   0.000D+00 0.000D+00 0.000D+00 0.000D+00 0.000D+00 0.000D+00
 Coeff-En:   0.100D+01
 Coeff:     -0.826D-03 0.205D-02 0.211D-02-0.306D-01 0.322D-02 0.227D+00
 Coeff:      0.797D+00
 Gap=     0.090 Goal=   None    Shift=    0.000
 Gap=     0.135 Goal=   None    Shift=    0.000
 RMSDP=1.74D-05 MaxDP=5.84D-03 DE=-2.56D-03 OVMax= 1.06D-02

 Cycle   8  Pass 1  IDiag  1:
 RMSU=  1.26D-05    CP:  9.80D-01  2.37D+00  7.09D-01  7.74D-01  1.38D+00
                    CP:  1.30D+00  1.16D+00
 E= -2677.28322764597     Delta-E=       -0.000294724353 Rises=F Damp=F
 DIIS: error= 2.27D-04 at cycle   8 NSaved=   8.
 NSaved= 8 IEnMin= 8 EnMin= -2677.28322764597     IErMin= 8 ErrMin= 2.27D-04
 ErrMax= 2.27D-04  0.00D+00 EMaxC= 1.00D-01 BMatC= 2.45D-04 BMatP= 6.93D-04
 IDIUse=3 WtCom= 9.98D-01 WtEn= 2.27D-03
 Coeff-Com: -0.462D-02 0.705D-02-0.126D-02 0.595D-02-0.759D-01-0.758D-01
 Coeff-Com:  0.399D+00 0.746D+00
 Coeff-En:   0.000D+00 0.000D+00 0.000D+00 0.000D+00 0.000D+00 0.000D+00
 Coeff-En:   0.000D+00 0.100D+01
 Coeff:     -0.461D-02 0.704D-02-0.126D-02 0.594D-02-0.757D-01-0.756D-01
 Coeff:      0.398D+00 0.747D+00
 Gap=     0.093 Goal=   None    Shift=    0.000
 Gap=     0.134 Goal=   None    Shift=    0.000
 RMSDP=1.30D-05 MaxDP=8.35D-03 DE=-2.95D-04 OVMax= 7.04D-03

 Cycle   9  Pass 1  IDiag  1:
 RMSU=  5.96D-06    CP:  9.80D-01  2.38D+00  7.13D-01  7.68D-01  1.41D+00
                    CP:  1.34D+00  1.43D+00  1.29D+00
 E= -2677.28335467158     Delta-E=       -0.000127025613 Rises=F Damp=F
 DIIS: error= 1.01D-04 at cycle   9 NSaved=   9.
 NSaved= 9 IEnMin= 9 EnMin= -2677.28335467158     IErMin= 9 ErrMin= 1.01D-04
 ErrMax= 1.01D-04  0.00D+00 EMaxC= 1.00D-01 BMatC= 3.95D-05 BMatP= 2.45D-04
 IDIUse=3 WtCom= 9.99D-01 WtEn= 1.01D-03
 Coeff-Com: -0.125D-02 0.184D-02-0.386D-03 0.689D-02-0.252D-01-0.612D-01
 Coeff-Com:  0.396D-02 0.249D+00 0.826D+00
 Coeff-En:   0.000D+00 0.000D+00 0.000D+00 0.000D+00 0.000D+00 0.000D+00
 Coeff-En:   0.000D+00 0.000D+00 0.100D+01
 Coeff:     -0.124D-02 0.184D-02-0.386D-03 0.688D-02-0.252D-01-0.611D-01
 Coeff:      0.395D-02 0.249D+00 0.826D+00
 Gap=     0.094 Goal=   None    Shift=    0.000
 Gap=     0.134 Goal=   None    Shift=    0.000
 RMSDP=5.58D-06 MaxDP=2.21D-03 DE=-1.27D-04 OVMax= 3.24D-03

 Cycle  10  Pass 1  IDiag  1:
 RMSU=  2.85D-06    CP:  9.80D-01  2.38D+00  7.12D-01  7.67D-01  1.41D+00
                    CP:  1.37D+00  1.50D+00  1.56D+00  1.24D+00
 E= -2677.28338528660     Delta-E=       -0.000030615019 Rises=F Damp=F
 DIIS: error= 5.91D-05 at cycle  10 NSaved=  10.
 NSaved=10 IEnMin=10 EnMin= -2677.28338528660     IErMin=10 ErrMin= 5.91D-05
 ErrMax= 5.91D-05  0.00D+00 EMaxC= 1.00D-01 BMatC= 1.78D-05 BMatP= 3.95D-05
 IDIUse=1 WtCom= 1.00D+00 WtEn= 0.00D+00
 Coeff-Com:  0.600D-03-0.892D-03 0.648D-03 0.137D-02 0.107D-01-0.631D-02
 Coeff-Com: -0.131D+00-0.133D+00 0.446D+00 0.811D+00
 Coeff:      0.600D-03-0.892D-03 0.648D-03 0.137D-02 0.107D-01-0.631D-02
 Coeff:     -0.131D+00-0.133D+00 0.446D+00 0.811D+00
 Gap=     0.094 Goal=   None    Shift=    0.000
 Gap=     0.134 Goal=   None    Shift=    0.000
 RMSDP=4.19D-06 MaxDP=2.37D-03 DE=-3.06D-05 OVMax= 2.56D-03

 Cycle  11  Pass 1  IDiag  1:
 RMSU=  1.65D-06    CP:  9.80D-01  2.38D+00  7.12D-01  7.66D-01  1.41D+00
                    CP:  1.38D+00  1.56D+00  1.72D+00  1.57D+00  1.35D+00
 E= -2677.28339922465     Delta-E=       -0.000013938045 Rises=F Damp=F
 DIIS: error= 2.70D-05 at cycle  11 NSaved=  11.
 NSaved=11 IEnMin=11 EnMin= -2677.28339922465     IErMin=11 ErrMin= 2.70D-05
 ErrMax= 2.70D-05  0.00D+00 EMaxC= 1.00D-01 BMatC= 2.86D-06 BMatP= 1.78D-05
 IDIUse=1 WtCom= 1.00D+00 WtEn= 0.00D+00
 Coeff-Com:  0.174D-03-0.207D-03 0.168D-03-0.166D-02 0.630D-02 0.932D-02
 Coeff-Com: -0.321D-01-0.820D-01-0.504D-01 0.225D+00 0.925D+00
 Coeff:      0.174D-03-0.207D-03 0.168D-03-0.166D-02 0.630D-02 0.932D-02
 Coeff:     -0.321D-01-0.820D-01-0.504D-01 0.225D+00 0.925D+00
 Gap=     0.094 Goal=   None    Shift=    0.000
 Gap=     0.134 Goal=   None    Shift=    0.000
 RMSDP=1.82D-06 MaxDP=7.27D-04 DE=-1.39D-05 OVMax= 1.14D-03

 Cycle  12  Pass 1  IDiag  1:
 RMSU=  8.12D-07    CP:  9.80D-01  2.38D+00  7.12D-01  7.65D-01  1.41D+00
                    CP:  1.39D+00  1.58D+00  1.79D+00  1.67D+00  1.67D+00
                    CP:  1.25D+00
 E= -2677.28340247679     Delta-E=       -0.000003252148 Rises=F Damp=F
 DIIS: error= 1.18D-05 at cycle  12 NSaved=  12.
 NSaved=12 IEnMin=12 EnMin= -2677.28340247679     IErMin=12 ErrMin= 1.18D-05
 ErrMax= 1.18D-05  0.00D+00 EMaxC= 1.00D-01 BMatC= 9.52D-07 BMatP= 2.86D-06
 IDIUse=1 WtCom= 1.00D+00 WtEn= 0.00D+00
 Coeff-Com: -0.445D-06 0.116D-04 0.673D-04-0.592D-03-0.241D-03 0.424D-02
 Coeff-Com:  0.223D-01 0.561D-02-0.147D+00-0.133D+00 0.386D+00 0.862D+00
 Coeff:     -0.445D-06 0.116D-04 0.673D-04-0.592D-03-0.241D-03 0.424D-02
 Coeff:      0.223D-01 0.561D-02-0.147D+00-0.133D+00 0.386D+00 0.862D+00
 Gap=     0.094 Goal=   None    Shift=    0.000
 Gap=     0.134 Goal=   None    Shift=    0.000
 RMSDP=9.29D-07 MaxDP=2.37D-04 DE=-3.25D-06 OVMax= 7.43D-04

 Cycle  13  Pass 1  IDiag  1:
 RMSU=  3.87D-07    CP:  9.80D-01  2.38D+00  7.12D-01  7.65D-01  1.41D+00
                    CP:  1.39D+00  1.58D+00  1.81D+00  1.71D+00  1.82D+00
                    CP:  1.49D+00  1.39D+00
 E= -2677.28340351712     Delta-E=       -0.000001040328 Rises=F Damp=F
 DIIS: error= 6.10D-06 at cycle  13 NSaved=  13.
 NSaved=13 IEnMin=13 EnMin= -2677.28340351712     IErMin=13 ErrMin= 6.10D-06
 ErrMax= 6.10D-06  0.00D+00 EMaxC= 1.00D-01 BMatC= 2.50D-07 BMatP= 9.52D-07
 IDIUse=1 WtCom= 1.00D+00 WtEn= 0.00D+00
 Coeff-Com: -0.101D-03 0.141D-03-0.235D-04 0.324D-03-0.202D-02-0.112D-02
 Coeff-Com:  0.195D-01 0.282D-01-0.507D-01-0.126D+00-0.116D+00 0.355D+00
 Coeff-Com:  0.893D+00
 Coeff:     -0.101D-03 0.141D-03-0.235D-04 0.324D-03-0.202D-02-0.112D-02
 Coeff:      0.195D-01 0.282D-01-0.507D-01-0.126D+00-0.116D+00 0.355D+00
 Coeff:      0.893D+00
 Gap=     0.094 Goal=   None    Shift=    0.000
 Gap=     0.134 Goal=   None    Shift=    0.000
 RMSDP=5.59D-07 MaxDP=2.34D-04 DE=-1.04D-06 OVMax= 4.71D-04

 Cycle  14  Pass 1  IDiag  1:
 RMSU=  1.90D-07    CP:  9.80D-01  2.38D+00  7.12D-01  7.65D-01  1.41D+00
                    CP:  1.39D+00  1.59D+00  1.83D+00  1.72D+00  1.90D+00
                    CP:  1.59D+00  1.81D+00  1.41D+00
 E= -2677.28340383337     Delta-E=       -0.000000316248 Rises=F Damp=F
 DIIS: error= 3.60D-06 at cycle  14 NSaved=  14.
 NSaved=14 IEnMin=14 EnMin= -2677.28340383337     IErMin=14 ErrMin= 3.60D-06
 ErrMax= 3.60D-06  0.00D+00 EMaxC= 1.00D-01 BMatC= 5.74D-08 BMatP= 2.50D-07
 IDIUse=1 WtCom= 1.00D+00 WtEn= 0.00D+00
 Coeff-Com: -0.380D-04 0.488D-04-0.523D-04 0.212D-03-0.464D-03-0.687D-03
 Coeff-Com:  0.135D-02 0.622D-02 0.108D-01-0.142D-01-0.101D+00-0.488D-01
 Coeff-Com:  0.276D+00 0.870D+00
 Coeff:     -0.380D-04 0.488D-04-0.523D-04 0.212D-03-0.464D-03-0.687D-03
 Coeff:      0.135D-02 0.622D-02 0.108D-01-0.142D-01-0.101D+00-0.488D-01
 Coeff:      0.276D+00 0.870D+00
 Gap=     0.094 Goal=   None    Shift=    0.000
 Gap=     0.134 Goal=   None    Shift=    0.000
 RMSDP=2.29D-07 MaxDP=7.13D-05 DE=-3.16D-07 OVMax= 1.82D-04

 Cycle  15  Pass 1  IDiag  1:
 RMSU=  9.85D-08    CP:  9.80D-01  2.38D+00  7.12D-01  7.65D-01  1.41D+00
                    CP:  1.39D+00  1.59D+00  1.83D+00  1.73D+00  1.91D+00
                    CP:  1.61D+00  1.93D+00  1.72D+00  1.47D+00
 E= -2677.28340390462     Delta-E=       -0.000000071253 Rises=F Damp=F
 DIIS: error= 2.48D-06 at cycle  15 NSaved=  15.
 NSaved=15 IEnMin=15 EnMin= -2677.28340390462     IErMin=15 ErrMin= 2.48D-06
 ErrMax= 2.48D-06  0.00D+00 EMaxC= 1.00D-01 BMatC= 2.23D-08 BMatP= 5.74D-08
 IDIUse=1 WtCom= 1.00D+00 WtEn= 0.00D+00
 Coeff-Com: -0.493D-05 0.505D-05-0.411D-04-0.120D-04 0.414D-03 0.389D-03
 Coeff-Com: -0.554D-02-0.689D-02 0.194D-01 0.324D-01 0.141D-02-0.135D+00
 Coeff-Com: -0.171D+00 0.340D+00 0.925D+00
 Coeff:     -0.493D-05 0.505D-05-0.411D-04-0.120D-04 0.414D-03 0.389D-03
 Coeff:     -0.554D-02-0.689D-02 0.194D-01 0.324D-01 0.141D-02-0.135D+00
 Coeff:     -0.171D+00 0.340D+00 0.925D+00
 Gap=     0.094 Goal=   None    Shift=    0.000
 Gap=     0.134 Goal=   None    Shift=    0.000
 RMSDP=1.72D-07 MaxDP=4.25D-05 DE=-7.13D-08 OVMax= 1.48D-04

 Cycle  16  Pass 1  IDiag  1:
 RMSU=  6.84D-08    CP:  9.80D-01  2.38D+00  7.12D-01  7.65D-01  1.41D+00
                    CP:  1.39D+00  1.59D+00  1.84D+00  1.73D+00  1.92D+00
                    CP:  1.62D+00  1.98D+00  1.91D+00  1.95D+00  1.73D+00
 E= -2677.28340393815     Delta-E=       -0.000000033524 Rises=F Damp=F
 DIIS: error= 1.55D-06 at cycle  16 NSaved=  16.
 NSaved=16 IEnMin=16 EnMin= -2677.28340393815     IErMin=16 ErrMin= 1.55D-06
 ErrMax= 1.55D-06  0.00D+00 EMaxC= 1.00D-01 BMatC= 6.78D-09 BMatP= 2.23D-08
 IDIUse=1 WtCom= 1.00D+00 WtEn= 0.00D+00
 Coeff-Com: -0.263D-05 0.475D-05-0.124D-04-0.426D-04 0.198D-03 0.373D-03
 Coeff-Com: -0.146D-02-0.329D-02 0.125D-02 0.106D-01 0.287D-01-0.234D-01
 Coeff-Com: -0.109D+00-0.157D+00 0.249D+00 0.100D+01
 Coeff:     -0.263D-05 0.475D-05-0.124D-04-0.426D-04 0.198D-03 0.373D-03
 Coeff:     -0.146D-02-0.329D-02 0.125D-02 0.106D-01 0.287D-01-0.234D-01
 Coeff:     -0.109D+00-0.157D+00 0.249D+00 0.100D+01
 Gap=     0.094 Goal=   None    Shift=    0.000
 Gap=     0.134 Goal=   None    Shift=    0.000
 RMSDP=1.16D-07 MaxDP=2.32D-05 DE=-3.35D-08 OVMax= 1.13D-04

 Cycle  17  Pass 1  IDiag  1:
 RMSU=  3.78D-08    CP:  9.80D-01  2.38D+00  7.12D-01  7.65D-01  1.41D+00
                    CP:  1.39D+00  1.59D+00  1.84D+00  1.73D+00  1.92D+00
                    CP:  1.62D+00  2.01D+00  2.02D+00  2.25D+00  2.41D+00
                    CP:  1.54D+00
 E= -2677.28340395159     Delta-E=       -0.000000013446 Rises=F Damp=F
 DIIS: error= 5.25D-07 at cycle  17 NSaved=  17.
 NSaved=17 IEnMin=17 EnMin= -2677.28340395159     IErMin=17 ErrMin= 5.25D-07
 ErrMax= 5.25D-07  0.00D+00 EMaxC= 1.00D-01 BMatC= 2.67D-09 BMatP= 6.78D-09
 IDIUse=1 WtCom= 1.00D+00 WtEn= 0.00D+00
 Coeff-Com:  0.372D-05-0.499D-05 0.282D-05-0.852D-05-0.661D-04-0.340D-04
 Coeff-Com:  0.151D-02 0.117D-02-0.733D-02-0.762D-02 0.146D-01 0.433D-01
 Coeff-Com:  0.192D-01-0.229D+00-0.262D+00 0.510D+00 0.917D+00
 Coeff:      0.372D-05-0.499D-05 0.282D-05-0.852D-05-0.661D-04-0.340D-04
 Coeff:      0.151D-02 0.117D-02-0.733D-02-0.762D-02 0.146D-01 0.433D-01
 Coeff:      0.192D-01-0.229D+00-0.262D+00 0.510D+00 0.917D+00
 Gap=     0.094 Goal=   None    Shift=    0.000
 Gap=     0.134 Goal=   None    Shift=    0.000
 RMSDP=9.49D-08 MaxDP=2.20D-05 DE=-1.34D-08 OVMax= 9.98D-05

 Cycle  18  Pass 1  IDiag  1:
 RMSU=  2.22D-08    CP:  9.80D-01  2.38D+00  7.12D-01  7.65D-01  1.41D+00
                    CP:  1.39D+00  1.59D+00  1.84D+00  1.73D+00  1.92D+00
                    CP:  1.62D+00  2.01D+00  2.09D+00  2.47D+00  2.93D+00
                    CP:  2.17D+00  1.85D+00
 E= -2677.28340395837     Delta-E=       -0.000000006781 Rises=F Damp=F
 DIIS: error= 3.04D-07 at cycle  18 NSaved=  18.
 NSaved=18 IEnMin=18 EnMin= -2677.28340395837     IErMin=18 ErrMin= 3.04D-07
 ErrMax= 3.04D-07  0.00D+00 EMaxC= 1.00D-01 BMatC= 8.02D-10 BMatP= 2.67D-09
 IDIUse=1 WtCom= 1.00D+00 WtEn= 0.00D+00
 Coeff-Com:  0.277D-05-0.385D-05 0.535D-05 0.508D-05-0.614D-04-0.160D-03
 Coeff-Com:  0.764D-03 0.126D-02-0.188D-02-0.454D-02-0.648D-02 0.156D-01
 Coeff-Com:  0.388D-01 0.881D-02-0.127D+00-0.205D+00 0.168D+00 0.111D+01
 Coeff:      0.277D-05-0.385D-05 0.535D-05 0.508D-05-0.614D-04-0.160D-03
 Coeff:      0.764D-03 0.126D-02-0.188D-02-0.454D-02-0.648D-02 0.156D-01
 Coeff:      0.388D-01 0.881D-02-0.127D+00-0.205D+00 0.168D+00 0.111D+01
 Gap=     0.094 Goal=   None    Shift=    0.000
 Gap=     0.134 Goal=   None    Shift=    0.000
 RMSDP=6.47D-08 MaxDP=1.79D-05 DE=-6.78D-09 OVMax= 7.96D-05

 Cycle  19  Pass 1  IDiag  1:
 RMSU=  2.73D-08    CP:  9.80D-01  2.38D+00  7.12D-01  7.65D-01  1.41D+00
                    CP:  1.39D+00  1.59D+00  1.84D+00  1.73D+00  1.92D+00
                    CP:  1.63D+00  2.02D+00  2.13D+00  2.58D+00  3.00D+00
                    CP:  2.56D+00  2.77D+00  1.98D+00
 E= -2677.28340396152     Delta-E=       -0.000000003150 Rises=F Damp=F
 DIIS: error= 2.93D-07 at cycle  19 NSaved=  19.
 NSaved=19 IEnMin=19 EnMin= -2677.28340396152     IErMin=19 ErrMin= 2.93D-07
 ErrMax= 2.93D-07  0.00D+00 EMaxC= 1.00D-01 BMatC= 4.64D-10 BMatP= 8.02D-10
 IDIUse=1 WtCom= 1.00D+00 WtEn= 0.00D+00
 Coeff-Com:  0.124D-05-0.166D-05 0.524D-05 0.357D-05-0.271D-05-0.802D-04
 Coeff-Com: -0.196D-03 0.223D-03 0.200D-02 0.807D-03-0.921D-02-0.877D-02
 Coeff-Com:  0.103D-01 0.923D-01 0.320D-01-0.289D+00-0.242D+00 0.484D+00
 Coeff-Com:  0.928D+00
 Coeff:      0.124D-05-0.166D-05 0.524D-05 0.357D-05-0.271D-05-0.802D-04
 Coeff:     -0.196D-03 0.223D-03 0.200D-02 0.807D-03-0.921D-02-0.877D-02
 Coeff:      0.103D-01 0.923D-01 0.320D-01-0.289D+00-0.242D+00 0.484D+00
 Coeff:      0.928D+00
 Gap=     0.094 Goal=   None    Shift=    0.000
 Gap=     0.134 Goal=   None    Shift=    0.000
 RMSDP=5.02D-08 MaxDP=1.44D-05 DE=-3.15D-09 OVMax= 6.44D-05

 Cycle  20  Pass 1  IDiag  1:
 RMSU=  2.20D-08    CP:  9.80D-01  2.38D+00  7.12D-01  7.65D-01  1.41D+00
                    CP:  1.39D+00  1.59D+00  1.84D+00  1.73D+00  1.92D+00
                    CP:  1.63D+00  2.03D+00  2.15D+00  2.65D+00  3.00D+00
                    CP:  2.82D+00  3.00D+00  2.92D+00  1.83D+00
 E= -2677.28340396328     Delta-E=       -0.000000001752 Rises=F Damp=F
 DIIS: error= 1.95D-07 at cycle  20 NSaved=  20.
 NSaved=20 IEnMin=20 EnMin= -2677.28340396328     IErMin=20 ErrMin= 1.95D-07
 ErrMax= 1.95D-07  0.00D+00 EMaxC= 1.00D-01 BMatC= 2.33D-10 BMatP= 4.64D-10
 IDIUse=1 WtCom= 1.00D+00 WtEn= 0.00D+00
 Coeff-Com: -0.333D-06 0.620D-06 0.955D-06-0.441D-05 0.209D-04 0.490D-04
 Coeff-Com: -0.430D-03-0.526D-03 0.140D-02 0.229D-02 0.673D-03-0.832D-02
 Coeff-Com: -0.163D-01 0.206D-01 0.591D-01 0.255D-01-0.113D+00-0.448D+00
 Coeff-Com:  0.220D+00 0.126D+01
 Coeff:     -0.333D-06 0.620D-06 0.955D-06-0.441D-05 0.209D-04 0.490D-04
 Coeff:     -0.430D-03-0.526D-03 0.140D-02 0.229D-02 0.673D-03-0.832D-02
 Coeff:     -0.163D-01 0.206D-01 0.591D-01 0.255D-01-0.113D+00-0.448D+00
 Coeff:      0.220D+00 0.126D+01
 Gap=     0.094 Goal=   None    Shift=    0.000
 Gap=     0.134 Goal=   None    Shift=    0.000
 RMSDP=5.22D-08 MaxDP=1.52D-05 DE=-1.75D-09 OVMax= 6.80D-05

 Cycle  21  Pass 1  IDiag  1:
 Restarting incremental Fock formation.
 E= -2677.28340396471     Delta-E=       -0.000000001434 Rises=F Damp=F
 DIIS: error= 9.84D-08 at cycle  21 NSaved=  20.
 NSaved=20 IEnMin=20 EnMin= -2677.28340396471     IErMin=20 ErrMin= 9.84D-08
 ErrMax= 9.84D-08  0.00D+00 EMaxC= 1.00D-01 BMatC= 1.21D-10 BMatP= 2.33D-10
 IDIUse=1 WtCom= 1.00D+00 WtEn= 0.00D+00
 Coeff-Com: -0.128D-06-0.210D-05-0.359D-05 0.119D-04 0.812D-04-0.788D-04
 Coeff-Com: -0.398D-03-0.676D-03 0.504D-03 0.637D-02 0.225D-02-0.145D-01
 Coeff-Com: -0.508D-01 0.212D-02 0.201D+00 0.118D+00-0.506D+00-0.516D+00
 Coeff-Com:  0.550D+00 0.121D+01
 Coeff:     -0.128D-06-0.210D-05-0.359D-05 0.119D-04 0.812D-04-0.788D-04
 Coeff:     -0.398D-03-0.676D-03 0.504D-03 0.637D-02 0.225D-02-0.145D-01
 Coeff:     -0.508D-01 0.212D-02 0.201D+00 0.118D+00-0.506D+00-0.516D+00
 Coeff:      0.550D+00 0.121D+01
 Gap=     0.094 Goal=   None    Shift=    0.000
 Gap=     0.134 Goal=   None    Shift=    0.000
 RMSDP=5.20D-08 MaxDP=1.51D-05 DE=-1.43D-09 OVMax= 6.73D-05

 Cycle  22  Pass 1  IDiag  1:
 RMSU=  5.20D-08    CP:  1.00D+00
 E= -2677.28340396554     Delta-E=       -0.000000000834 Rises=F Damp=F
 DIIS: error= 9.43D-08 at cycle  22 NSaved=  20.
 NSaved=20 IEnMin=20 EnMin= -2677.28340396554     IErMin=20 ErrMin= 9.43D-08
 ErrMax= 9.43D-08  0.00D+00 EMaxC= 1.00D-01 BMatC= 5.65D-11 BMatP= 1.21D-10
 IDIUse=1 WtCom= 1.00D+00 WtEn= 0.00D+00
 Coeff-Com: -0.943D-06 0.528D-05-0.703D-05 0.159D-05 0.225D-03 0.180D-03
 Coeff-Com: -0.105D-02-0.121D-02 0.186D-02 0.539D-02 0.464D-02-0.305D-01
 Coeff-Com: -0.313D-01 0.553D-01 0.999D-01 0.904D-01-0.319D+00-0.563D+00
 Coeff-Com:  0.491D+00 0.120D+01
 Coeff:     -0.943D-06 0.528D-05-0.703D-05 0.159D-05 0.225D-03 0.180D-03
 Coeff:     -0.105D-02-0.121D-02 0.186D-02 0.539D-02 0.464D-02-0.305D-01
 Coeff:     -0.313D-01 0.553D-01 0.999D-01 0.904D-01-0.319D+00-0.563D+00
 Coeff:      0.491D+00 0.120D+01
 Gap=     0.094 Goal=   None    Shift=    0.000
 Gap=     0.134 Goal=   None    Shift=    0.000
 RMSDP=4.29D-08 MaxDP=1.24D-05 DE=-8.34D-10 OVMax= 5.52D-05

 Cycle  23  Pass 1  IDiag  1:
 RMSU=  6.20D-09    CP:  1.00D+00  1.82D+00
 E= -2677.28340396599     Delta-E=       -0.000000000447 Rises=F Damp=F
 DIIS: error= 7.30D-08 at cycle  23 NSaved=  20.
 NSaved=20 IEnMin=20 EnMin= -2677.28340396599     IErMin=20 ErrMin= 7.30D-08
 ErrMax= 7.30D-08  0.00D+00 EMaxC= 1.00D-01 BMatC= 1.97D-11 BMatP= 5.65D-11
 IDIUse=1 WtCom= 1.00D+00 WtEn= 0.00D+00
 Coeff-Com:  0.281D-05-0.954D-06-0.214D-04 0.977D-04 0.166D-03-0.147D-03
 Coeff-Com: -0.582D-03-0.159D-02 0.114D-02 0.761D-02 0.707D-02-0.110D-01
 Coeff-Com: -0.593D-01-0.166D-01 0.247D+00 0.887D-01-0.441D+00-0.263D+00
 Coeff-Com:  0.398D+00 0.104D+01
 Coeff:      0.281D-05-0.954D-06-0.214D-04 0.977D-04 0.166D-03-0.147D-03
 Coeff:     -0.582D-03-0.159D-02 0.114D-02 0.761D-02 0.707D-02-0.110D-01
 Coeff:     -0.593D-01-0.166D-01 0.247D+00 0.887D-01-0.441D+00-0.263D+00
 Coeff:      0.398D+00 0.104D+01
 Gap=     0.094 Goal=   None    Shift=    0.000
 Gap=     0.134 Goal=   None    Shift=    0.000
 RMSDP=2.19D-08 MaxDP=6.14D-06 DE=-4.47D-10 OVMax= 2.74D-05

 Cycle  24  Pass 1  IDiag  1:
 RMSU=  3.78D-09    CP:  1.00D+00  2.22D+00  1.93D+00
 E= -2677.28340396606     Delta-E=       -0.000000000066 Rises=F Damp=F
 DIIS: error= 2.51D-08 at cycle  24 NSaved=  20.
 NSaved=20 IEnMin=20 EnMin= -2677.28340396606     IErMin=20 ErrMin= 2.51D-08
 ErrMax= 2.51D-08  0.00D+00 EMaxC= 1.00D-01 BMatC= 6.60D-12 BMatP= 1.97D-11
 IDIUse=1 WtCom= 1.00D+00 WtEn= 0.00D+00
 Coeff-Com:  0.901D-06-0.117D-04-0.292D-04 0.138D-04 0.319D-03 0.162D-03
 Coeff-Com: -0.144D-02-0.155D-02 0.192D-02 0.136D-01 0.814D-02-0.454D-01
 Coeff-Com: -0.475D-01 0.843D-01 0.149D+00-0.107D-01-0.278D+00-0.257D+00
 Coeff-Com:  0.478D+00 0.907D+00
 Coeff:      0.901D-06-0.117D-04-0.292D-04 0.138D-04 0.319D-03 0.162D-03
 Coeff:     -0.144D-02-0.155D-02 0.192D-02 0.136D-01 0.814D-02-0.454D-01
 Coeff:     -0.475D-01 0.843D-01 0.149D+00-0.107D-01-0.278D+00-0.257D+00
 Coeff:      0.478D+00 0.907D+00
 Gap=     0.094 Goal=   None    Shift=    0.000
 Gap=     0.134 Goal=   None    Shift=    0.000
 RMSDP=1.08D-08 MaxDP=2.90D-06 DE=-6.64D-11 OVMax= 1.30D-05

 Cycle  25  Pass 1  IDiag  1:
 RMSU=  1.49D-09    CP:  1.00D+00  2.40D+00  2.54D+00  1.49D+00
 E= -2677.28340396610     Delta-E=       -0.000000000038 Rises=F Damp=F
 DIIS: error= 1.58D-08 at cycle  25 NSaved=  20.
 NSaved=20 IEnMin=20 EnMin= -2677.28340396610     IErMin=20 ErrMin= 1.58D-08
 ErrMax= 1.58D-08  0.00D+00 EMaxC= 1.00D-01 BMatC= 1.63D-12 BMatP= 6.60D-12
 IDIUse=1 WtCom= 1.00D+00 WtEn= 0.00D+00
 Coeff-Com:  0.484D-06-0.334D-04-0.395D-04 0.152D-03 0.212D-03-0.388D-04
 Coeff-Com: -0.911D-03-0.144D-02 0.224D-02 0.687D-02 0.217D-02-0.125D-01
 Coeff-Com: -0.383D-01 0.160D-01 0.110D+00-0.371D-02-0.178D+00-0.134D+00
 Coeff-Com:  0.272D+00 0.960D+00
 Coeff:      0.484D-06-0.334D-04-0.395D-04 0.152D-03 0.212D-03-0.388D-04
 Coeff:     -0.911D-03-0.144D-02 0.224D-02 0.687D-02 0.217D-02-0.125D-01
 Coeff:     -0.383D-01 0.160D-01 0.110D+00-0.371D-02-0.178D+00-0.134D+00
 Coeff:      0.272D+00 0.960D+00
 Gap=     0.094 Goal=   None    Shift=    0.000
 Gap=     0.134 Goal=   None    Shift=    0.000
 RMSDP=3.94D-09 MaxDP=1.19D-06 DE=-3.82D-11 OVMax= 4.44D-06

 Cycle  26  Pass 1  IDiag  1:
 RMSU=  1.18D-09    CP:  1.00D+00  2.47D+00  2.74D+00  1.61D+00  1.41D+00
 E= -2677.28340396617     Delta-E=       -0.000000000069 Rises=F Damp=F
 DIIS: error= 9.36D-09 at cycle  26 NSaved=  20.
 NSaved=20 IEnMin=20 EnMin= -2677.28340396617     IErMin=20 ErrMin= 9.36D-09
 ErrMax= 9.36D-09  0.00D+00 EMaxC= 1.00D-01 BMatC= 5.89D-13 BMatP= 1.63D-12
 IDIUse=1 WtCom= 1.00D+00 WtEn= 0.00D+00
 Coeff-Com: -0.715D-05-0.140D-04 0.259D-05 0.505D-04 0.219D-03-0.452D-04
 Coeff-Com: -0.729D-03-0.140D-02 0.517D-03 0.661D-02 0.365D-02-0.224D-01
 Coeff-Com: -0.187D-01 0.394D-01 0.507D-01-0.151D-01-0.171D+00-0.128D+00
 Coeff-Com:  0.407D+00 0.849D+00
 Coeff:     -0.715D-05-0.140D-04 0.259D-05 0.505D-04 0.219D-03-0.452D-04
 Coeff:     -0.729D-03-0.140D-02 0.517D-03 0.661D-02 0.365D-02-0.224D-01
 Coeff:     -0.187D-01 0.394D-01 0.507D-01-0.151D-01-0.171D+00-0.128D+00
 Coeff:      0.407D+00 0.849D+00
 Gap=     0.094 Goal=   None    Shift=    0.000
 Gap=     0.134 Goal=   None    Shift=    0.000
 RMSDP=1.73D-09 MaxDP=5.74D-07 DE=-6.91D-11 OVMax= 1.76D-06

 Error on total polarization charges =  0.02955
 SCF Done:  E(UM062X) =  -2677.28340397     A.U. after   26 cycles
            NFock= 26  Conv=0.17D-08     -V/T= 2.0055
 <Sx>= 0.0000 <Sy>= 0.0000 <Sz>= 0.5000 <S**2>= 0.7658 S= 0.5079
 <L.S>=  0.00000000000    
 KE= 2.662678375013D+03 PE=-2.181109459988D+04 EE= 8.700868827381D+03
 Annihilation of the first spin contaminant:
 S**2 before annihilation     0.7658,   after     0.7502
 Leave Link  502 at Fri Oct 10 20:27:55 2025, MaxMem= 30870077440 cpu:          282146.5 elap:            4459.6
 (Enter /work/home/accqbws0vm/apprepo/gaussian/16-hy/scripts/../app/g16/l601.exe)
 Copying SCF densities to generalized density rwf, IOpCl= 1 IROHF=0.
 Hyperfine terms turned off by default for NAtoms > 100.

 **********************************************************************

            Population analysis using the SCF density.

 **********************************************************************

 Orbital symmetries:
 Alpha Orbitals:
       Occupied  (A) (A) (A) (A) (A) (A) (A) (A) (A) (A) (A) (A)
                 (A) (A) (A) (A) (A) (A) (A) (A) (A) (A) (A) (A)
                 (A) (A) (A) (A) (A) (A) (A) (A) (A) (A) (A) (A)
                 (A) (A) (A) (A) (A) (A) (A) (A) (A) (A) (A) (A)
                 (A) (A) (A) (A) (A) (A) (A) (A) (A) (A) (A) (A)
                 (A) (A) (A) (A) (A) (A) (A) (A) (A) (A) (A) (A)
                 (A) (A) (A) (A) (A) (A) (A) (A) (A) (A) (A) (A)
                 (A) (A) (A) (A) (A) (A) (A) (A) (A) (A) (A) (A)
                 (A) (A) (A) (A) (A) (A) (A) (A) (A) (A) (A) (A)
                 (A) (A) (A) (A) (A) (A) (A) (A) (A) (A) (A) (A)
                 (A) (A) (A) (A) (A) (A) (A) (A) (A) (A) (A) (A)
                 (A) (A) (A) (A) (A) (A) (A) (A) (A) (A) (A) (A)
                 (A) (A) (A) (A) (A) (A) (A) (A) (A) (A) (A) (A)
                 (A) (A) (A) (A) (A) (A) (A) (A) (A) (A) (A) (A)
                 (A) (A) (A) (A) (A) (A) (A) (A) (A) (A) (A) (A)
                 (A) (A) (A) (A) (A) (A) (A) (A) (A) (A) (A) (A)
                 (A) (A) (A) (A) (A) (A) (A) (A) (A) (A) (A) (A)
                 (A) (A) (A) (A) (A) (A) (A) (A) (A) (A)
       Virtual   (A) (A) (A) (A) (A) (A) (A) (A) (A) (A) (A) (A)
                 (A) (A) (A) (A) (A) (A) (A) (A) (A) (A) (A) (A)
                 (A) (A) (A) (A) (A) (A) (A) (A) (A) (A) (A) (A)
                 (A) (A) (A) (A) (A) (A) (A) (A) (A) (A) (A) (A)
                 (A) (A) (A) (A) (A) (A) (A) (A) (A) (A) (A) (A)
                 (A) (A) (A) (A) (A) (A) (A) (A) (A) (A) (A) (A)
                 (A) (A) (A) (A) (A) (A) (A) (A) (A) (A) (A) (A)
                 (A) (A) (A) (A) (A) (A) (A) (A) (A) (A) (A) (A)
                 (A) (A) (A) (A) (A) (A) (A) (A) (A) (A) (A) (A)
                 (A) (A) (A) (A) (A) (A) (A) (A) (A) (A) (A) (A)
                 (A) (A) (A) (A) (A) (A) (A) (A) (A) (A) (A) (A)
                 (A) (A) (A) (A) (A) (A) (A) (A) (A) (A) (A) (A)
                 (A) (A) (A) (A) (A) (A) (A) (A) (A) (A) (A) (A)
                 (A) (A) (A) (A) (A) (A) (A) (A) (A) (A) (A) (A)
                 (A) (A) (A) (A) (A) (A) (A) (A) (A) (A) (A) (A)
                 (A) (A) (A) (A) (A) (A) (A) (A) (A) (A) (A) (A)
                 (A) (A) (A) (A) (A) (A) (A) (A) (A) (A) (A) (A)
                 (A) (A) (A) (A) (A) (A) (A) (A) (A) (A) (A) (A)
                 (A) (A) (A) (A) (A) (A) (A) (A) (A) (A) (A) (A)
                 (A) (A) (A) (A) (A) (A) (A) (A) (A) (A) (A) (A)
                 (A) (A) (A) (A) (A) (A) (A) (A) (A) (A) (A) (A)
                 (A) (A) (A) (A) (A) (A) (A) (A) (A) (A) (A) (A)
                 (A) (A) (A) (A) (A) (A) (A) (A) (A) (A) (A) (A)
                 (A) (A) (A) (A) (A) (A) (A) (A) (A) (A) (A) (A)
                 (A) (A) (A) (A) (A) (A) (A) (A) (A) (A) (A) (A)
                 (A) (A) (A) (A) (A) (A) (A) (A) (A) (A) (A) (A)
                 (A) (A) (A) (A) (A) (A) (A) (A) (A) (A) (A) (A)
                 (A) (A) (A) (A) (A) (A) (A) (A) (A) (A) (A) (A)
                 (A) (A) (A) (A) (A) (A) (A) (A) (A) (A) (A) (A)
                 (A) (A) (A) (A) (A) (A) (A) (A) (A) (A) (A) (A)
                 (A) (A) (A) (A) (A) (A) (A) (A) (A) (A) (A) (A)
                 (A) (A) (A) (A) (A) (A) (A) (A) (A) (A) (A) (A)
                 (A) (A) (A) (A) (A) (A) (A) (A) (A) (A) (A) (A)
                 (A) (A) (A) (A) (A) (A) (A) (A) (A) (A) (A) (A)
                 (A) (A) (A) (A) (A) (A) (A) (A) (A) (A) (A) (A)
                 (A) (A) (A) (A) (A) (A) (A) (A) (A) (A) (A) (A)
                 (A) (A) (A) (A) (A) (A) (A) (A) (A) (A) (A) (A)
                 (A) (A) (A) (A) (A) (A) (A) (A) (A) (A) (A) (A)
                 (A) (A) (A) (A) (A) (A) (A) (A) (A) (A) (A) (A)
                 (A) (A) (A) (A) (A) (A) (A) (A) (A) (A) (A) (A)
                 (A) (A) (A) (A) (A) (A) (A) (A) (A) (A) (A) (A)
                 (A) (A) (A) (A) (A) (A) (A) (A) (A) (A) (A) (A)
                 (A) (A) (A) (A) (A) (A) (A) (A) (A) (A) (A) (A)
                 (A) (A) (A) (A) (A) (A) (A) (A) (A) (A) (A) (A)
                 (A) (A) (A) (A) (A) (A) (A) (A) (A) (A) (A) (A)
                 (A) (A) (A) (A) (A) (A) (A) (A) (A) (A) (A) (A)
                 (A) (A) (A) (A) (A) (A) (A) (A) (A) (A) (A) (A)
                 (A) (A) (A) (A) (A) (A) (A) (A) (A) (A) (A) (A)
                 (A) (A) (A) (A) (A) (A) (A) (A) (A) (A) (A) (A)
                 (A) (A) (A) (A) (A) (A) (A) (A) (A) (A) (A) (A)
                 (A) (A) (A) (A) (A) (A) (A) (A) (A) (A) (A) (A)
                 (A) (A) (A) (A) (A) (A) (A) (A) (A) (A) (A) (A)
                 (A) (A) (A) (A) (A) (A) (A) (A) (A) (A) (A) (A)
                 (A) (A) (A) (A) (A) (A) (A) (A) (A) (A) (A) (A)
                 (A) (A) (A) (A) (A) (A) (A) (A) (A) (A) (A) (A)
                 (A) (A) (A) (A) (A) (A) (A) (A) (A) (A) (A) (A)
                 (A) (A) (A) (A) (A) (A) (A) (A) (A) (A) (A) (A)
                 (A) (A) (A) (A) (A) (A) (A) (A) (A) (A) (A) (A)
                 (A) (A) (A) (A) (A) (A) (A) (A) (A) (A) (A) (A)
                 (A) (A) (A) (A) (A) (A) (A) (A) (A) (A) (A) (A)
                 (A) (A) (A) (A) (A) (A) (A) (A) (A) (A) (A) (A)
                 (A) (A) (A) (A) (A) (A) (A) (A) (A) (A) (A) (A)
                 (A) (A) (A) (A) (A) (A) (A) (A) (A) (A) (A) (A)
                 (A) (A) (A) (A) (A) (A) (A) (A) (A) (A) (A) (A)
                 (A) (A) (A) (A) (A) (A) (A) (A) (A) (A) (A) (A)
                 (A) (A) (A) (A) (A) (A) (A) (A) (A) (A) (A) (A)
                 (A) (A) (A) (A) (A) (A) (A) (A) (A) (A) (A) (A)
                 (A) (A) (A) (A) (A) (A) (A) (A) (A) (A) (A) (A)
                 (A) (A) (A) (A) (A) (A) (A) (A) (A) (A) (A) (A)
                 (A) (A) (A) (A) (A) (A) (A) (A) (A) (A) (A) (A)
                 (A) (A) (A) (A) (A) (A) (A) (A) (A) (A) (A) (A)
                 (A) (A) (A) (A) (A) (A) (A) (A) (A) (A) (A) (A)
                 (A) (A) (A) (A) (A) (A) (A) (A) (A) (A) (A) (A)
                 (A) (A) (A) (A) (A) (A) (A) (A) (A) (A) (A) (A)
                 (A) (A) (A) (A) (A) (A) (A) (A) (A) (A) (A) (A)
                 (A) (A) (A) (A) (A) (A) (A) (A) (A) (A) (A) (A)
                 (A) (A) (A) (A) (A) (A) (A) (A) (A) (A) (A) (A)
                 (A) (A) (A) (A) (A) (A) (A) (A) (A) (A) (A) (A)
                 (A) (A) (A) (A) (A) (A) (A) (A) (A) (A) (A) (A)
                 (A) (A) (A) (A) (A) (A) (A) (A) (A) (A) (A) (A)
                 (A) (A) (A) (A) (A) (A) (A) (A) (A) (A) (A) (A)
                 (A) (A) (A) (A) (A) (A) (A) (A) (A) (A) (A) (A)
                 (A) (A) (A) (A) (A) (A) (A) (A) (A) (A) (A) (A)
                 (A) (A) (A) (A) (A) (A) (A) (A) (A) (A) (A) (A)
                 (A) (A) (A) (A) (A) (A) (A) (A) (A) (A) (A) (A)
                 (A) (A) (A) (A) (A) (A) (A) (A) (A) (A) (A) (A)
                 (A) (A) (A) (A) (A) (A) (A) (A) (A) (A) (A) (A)
                 (A) (A) (A) (A) (A) (A) (A) (A) (A) (A) (A) (A)
                 (A) (A) (A) (A) (A) (A) (A) (A) (A) (A) (A) (A)
                 (A) (A) (A) (A) (A) (A) (A) (A) (A) (A) (A) (A)
                 (A) (A) (A) (A) (A) (A) (A) (A) (A) (A) (A) (A)
                 (A) (A) (A) (A) (A) (A) (A) (A) (A) (A) (A) (A)
                 (A) (A) (A) (A) (A) (A) (A) (A) (A) (A) (A) (A)
                 (A) (A) (A) (A) (A) (A) (A) (A) (A) (A) (A) (A)
                 (A) (A) (A) (A) (A) (A) (A) (A) (A) (A) (A) (A)
                 (A) (A) (A) (A) (A) (A) (A) (A) (A) (A) (A) (A)
                 (A) (A) (A) (A) (A) (A) (A) (A) (A) (A) (A) (A)
                 (A) (A) (A) (A) (A) (A) (A) (A) (A) (A) (A) (A)
                 (A) (A) (A) (A) (A) (A) (A) (A) (A) (A) (A) (A)
                 (A) (A) (A) (A) (A) (A) (A) (A) (A) (A) (A) (A)
                 (A) (A) (A) (A) (A) (A) (A) (A) (A) (A) (A) (A)
                 (A) (A) (A) (A) (A) (A) (A) (A) (A) (A) (A) (A)
                 (A) (A) (A) (A) (A) (A) (A) (A) (A) (A) (A) (A)
                 (A) (A) (A) (A) (A) (A) (A) (A) (A) (A) (A) (A)
                 (A) (A) (A) (A) (A) (A) (A) (A) (A) (A) (A) (A)
                 (A) (A) (A) (A) (A) (A) (A) (A) (A) (A) (A) (A)
                 (A) (A) (A) (A) (A) (A) (A) (A) (A) (A) (A) (A)
                 (A) (A) (A) (A) (A) (A) (A) (A) (A) (A) (A) (A)
                 (A) (A) (A) (A) (A) (A) (A) (A) (A) (A) (A) (A)
                 (A) (A) (A) (A) (A) (A) (A) (A) (A) (A) (A) (A)
                 (A) (A) (A) (A) (A) (A) (A) (A) (A) (A) (A) (A)
                 (A) (A) (A) (A) (A) (A) (A) (A) (A) (A) (A) (A)
                 (A) (A) (A) (A) (A) (A) (A) (A) (A) (A) (A) (A)
                 (A) (A) (A) (A) (A) (A) (A) (A) (A) (A) (A) (A)
                 (A) (A) (A) (A) (A) (A) (A) (A) (A) (A) (A) (A)
                 (A) (A) (A) (A) (A) (A) (A) (A) (A) (A) (A) (A)
                 (A) (A) (A) (A) (A) (A) (A) (A) (A) (A) (A) (A)
                 (A) (A) (A) (A) (A) (A) (A) (A) (A) (A) (A) (A)
                 (A) (A) (A) (A) (A) (A) (A) (A) (A) (A) (A) (A)
                 (A) (A) (A) (A) (A) (A) (A) (A) (A) (A) (A) (A)
                 (A) (A) (A) (A) (A) (A) (A) (A) (A) (A) (A) (A)
                 (A) (A) (A) (A) (A) (A) (A) (A) (A) (A) (A) (A)
                 (A) (A) (A) (A) (A) (A) (A) (A) (A) (A) (A) (A)
                 (A) (A) (A) (A) (A) (A) (A) (A) (A) (A) (A) (A)
                 (A) (A) (A) (A) (A) (A) (A) (A) (A) (A) (A) (A)
                 (A) (A) (A) (A) (A) (A) (A) (A) (A) (A) (A) (A)
                 (A) (A) (A) (A) (A) (A) (A) (A) (A) (A) (A) (A)
                 (A) (A) (A) (A) (A) (A) (A) (A) (A) (A) (A) (A)
                 (A) (A) (A) (A) (A) (A) (A) (A) (A) (A) (A) (A)
                 (A) (A) (A) (A) (A) (A) (A) (A) (A) (A) (A) (A)
                 (A) (A) (A) (A) (A) (A) (A) (A) (A) (A) (A) (A)
                 (A) (A) (A) (A) (A) (A) (A) (A) (A) (A) (A) (A)
                 (A) (A) (A) (A) (A) (A) (A) (A) (A) (A) (A) (A)
                 (A) (A) (A) (A) (A) (A) (A) (A) (A) (A) (A) (A)
                 (A) (A) (A) (A) (A) (A) (A) (A) (A) (A) (A) (A)
                 (A) (A) (A) (A) (A) (A) (A) (A) (A) (A) (A) (A)
                 (A) (A) (A) (A) (A) (A) (A) (A) (A) (A) (A) (A)
                 (A) (A) (A) (A) (A) (A) (A) (A) (A) (A) (A) (A)
                 (A) (A) (A) (A) (A) (A) (A) (A) (A) (A) (A) (A)
                 (A) (A) (A) (A) (A) (A) (A) (A) (A) (A) (A) (A)
                 (A) (A) (A) (A) (A) (A) (A) (A) (A) (A) (A) (A)
                 (A) (A) (A) (A) (A) (A) (A) (A) (A) (A) (A) (A)
                 (A) (A) (A) (A) (A) (A) (A) (A) (A) (A) (A) (A)
                 (A) (A) (A) (A) (A) (A) (A) (A) (A) (A) (A) (A)
                 (A) (A) (A) (A) (A) (A) (A) (A) (A) (A) (A) (A)
                 (A) (A) (A) (A) (A) (A) (A) (A) (A) (A) (A) (A)
                 (A) (A) (A) (A) (A) (A) (A) (A) (A) (A) (A) (A)
                 (A) (A) (A) (A) (A) (A) (A) (A) (A) (A) (A) (A)
                 (A) (A) (A) (A) (A) (A) (A) (A) (A) (A) (A) (A)
                 (A) (A) (A) (A) (A) (A) (A) (A) (A) (A) (A) (A)
                 (A) (A) (A) (A) (A) (A) (A) (A) (A) (A) (A) (A)
                 (A) (A) (A) (A) (A) (A) (A) (A) (A) (A) (A) (A)
                 (A) (A) (A) (A) (A) (A) (A) (A) (A) (A) (A) (A)
                 (A) (A) (A) (A) (A) (A) (A) (A) (A) (A) (A) (A)
                 (A) (A) (A) (A) (A) (A) (A) (A) (A) (A) (A) (A)
                 (A) (A) (A) (A) (A) (A) (A) (A) (A) (A) (A) (A)
                 (A) (A) (A) (A) (A) (A) (A) (A) (A) (A) (A) (A)
                 (A) (A) (A) (A) (A) (A) (A) (A) (A) (A) (A) (A)
                 (A) (A) (A) (A) (A) (A) (A) (A) (A) (A) (A) (A)
                 (A) (A) (A) (A) (A) (A) (A) (A) (A) (A) (A) (A)
                 (A) (A) (A) (A) (A) (A) (A) (A) (A) (A) (A) (A)
                 (A) (A) (A) (A) (A) (A) (A) (A) (A) (A) (A) (A)
                 (A) (A) (A) (A) (A) (A) (A) (A) (A) (A) (A) (A)
                 (A) (A) (A) (A) (A) (A) (A) (A) (A) (A) (A) (A)
                 (A) (A) (A) (A) (A) (A) (A) (A) (A) (A) (A) (A)
                 (A) (A) (A) (A) (A) (A) (A) (A) (A) (A) (A) (A)
                 (A) (A) (A) (A) (A) (A) (A) (A) (A) (A) (A) (A)
                 (A) (A) (A) (A) (A) (A) (A) (A) (A) (A) (A) (A)
                 (A) (A) (A) (A) (A) (A) (A) (A) (A) (A) (A) (A)
                 (A) (A) (A) (A) (A) (A) (A) (A) (A) (A) (A) (A)
                 (A) (A) (A) (A) (A) (A) (A) (A) (A) (A) (A) (A)
                 (A) (A) (A) (A) (A) (A) (A) (A) (A) (A) (A) (A)
                 (A) (A) (A) (A) (A) (A) (A) (A) (A) (A) (A) (A)
                 (A) (A) (A) (A) (A) (A) (A) (A) (A) (A) (A) (A)
                 (A) (A) (A) (A) (A) (A) (A) (A) (A) (A) (A) (A)
                 (A) (A) (A) (A) (A) (A) (A) (A) (A) (A) (A) (A)
                 (A) (A) (A) (A) (A) (A) (A) (A) (A) (A) (A) (A)
                 (A) (A) (A) (A) (A) (A) (A) (A) (A) (A) (A) (A)
                 (A) (A) (A) (A) (A) (A) (A) (A) (A) (A) (A) (A)
                 (A) (A) (A) (A) (A) (A) (A) (A) (A) (A) (A) (A)
                 (A) (A) (A) (A) (A) (A) (A) (A) (A) (A) (A) (A)
                 (A) (A) (A) (A) (A) (A) (A) (A) (A) (A) (A) (A)
                 (A) (A) (A) (A) (A) (A) (A) (A) (A) (A) (A) (A)
                 (A) (A) (A) (A) (A) (A) (A) (A) (A) (A) (A) (A)
                 (A) (A) (A) (A) (A) (A) (A) (A) (A) (A) (A) (A)
                 (A) (A) (A) (A) (A) (A) (A) (A) (A) (A) (A) (A)
                 (A) (A) (A) (A) (A) (A) (A) (A) (A) (A) (A) (A)
                 (A) (A) (A) (A) (A) (A) (A) (A) (A) (A) (A) (A)
                 (A) (A) (A) (A) (A) (A) (A) (A) (A) (A) (A) (A)
                 (A) (A) (A) (A) (A) (A) (A) (A) (A) (A) (A) (A)
                 (A) (A) (A) (A) (A) (A) (A) (A) (A) (A) (A) (A)
                 (A) (A) (A) (A) (A) (A) (A) (A) (A) (A) (A) (A)
 Beta  Orbitals:
       Occupied  (A) (A) (A) (A) (A) (A) (A) (A) (A) (A) (A) (A)
                 (A) (A) (A) (A) (A) (A) (A) (A) (A) (A) (A) (A)
                 (A) (A) (A) (A) (A) (A) (A) (A) (A) (A) (A) (A)
                 (A) (A) (A) (A) (A) (A) (A) (A) (A) (A) (A) (A)
                 (A) (A) (A) (A) (A) (A) (A) (A) (A) (A) (A) (A)
                 (A) (A) (A) (A) (A) (A) (A) (A) (A) (A) (A) (A)
                 (A) (A) (A) (A) (A) (A) (A) (A) (A) (A) (A) (A)
                 (A) (A) (A) (A) (A) (A) (A) (A) (A) (A) (A) (A)
                 (A) (A) (A) (A) (A) (A) (A) (A) (A) (A) (A) (A)
                 (A) (A) (A) (A) (A) (A) (A) (A) (A) (A) (A) (A)
                 (A) (A) (A) (A) (A) (A) (A) (A) (A) (A) (A) (A)
                 (A) (A) (A) (A) (A) (A) (A) (A) (A) (A) (A) (A)
                 (A) (A) (A) (A) (A) (A) (A) (A) (A) (A) (A) (A)
                 (A) (A) (A) (A) (A) (A) (A) (A) (A) (A) (A) (A)
                 (A) (A) (A) (A) (A) (A) (A) (A) (A) (A) (A) (A)
                 (A) (A) (A) (A) (A) (A) (A) (A) (A) (A) (A) (A)
                 (A) (A) (A) (A) (A) (A) (A) (A) (A) (A) (A) (A)
                 (A) (A) (A) (A) (A) (A) (A) (A) (A)
       Virtual   (A) (A) (A) (A) (A) (A) (A) (A) (A) (A) (A) (A)
                 (A) (A) (A) (A) (A) (A) (A) (A) (A) (A) (A) (A)
                 (A) (A) (A) (A) (A) (A) (A) (A) (A) (A) (A) (A)
                 (A) (A) (A) (A) (A) (A) (A) (A) (A) (A) (A) (A)
                 (A) (A) (A) (A) (A) (A) (A) (A) (A) (A) (A) (A)
                 (A) (A) (A) (A) (A) (A) (A) (A) (A) (A) (A) (A)
                 (A) (A) (A) (A) (A) (A) (A) (A) (A) (A) (A) (A)
                 (A) (A) (A) (A) (A) (A) (A) (A) (A) (A) (A) (A)
                 (A) (A) (A) (A) (A) (A) (A) (A) (A) (A) (A) (A)
                 (A) (A) (A) (A) (A) (A) (A) (A) (A) (A) (A) (A)
                 (A) (A) (A) (A) (A) (A) (A) (A) (A) (A) (A) (A)
                 (A) (A) (A) (A) (A) (A) (A) (A) (A) (A) (A) (A)
                 (A) (A) (A) (A) (A) (A) (A) (A) (A) (A) (A) (A)
                 (A) (A) (A) (A) (A) (A) (A) (A) (A) (A) (A) (A)
[...]
  Beta virt. eigenvalues --    4.35413   4.35975   4.36019   4.36365   4.36570
  Beta virt. eigenvalues --    4.37209   4.37308   4.37574   4.38439   4.38787
  Beta virt. eigenvalues --    4.39270   4.39748   4.40138   4.40390   4.40724
  Beta virt. eigenvalues --    4.40945   4.42084   4.42515   4.42893   4.43106
  Beta virt. eigenvalues --    4.43252   4.43551   4.43810   4.44960   4.45216
  Beta virt. eigenvalues --    4.46220   4.46432   4.46756   4.47105   4.47347
  Beta virt. eigenvalues --    4.47557   4.47931   4.48170   4.48663   4.48803
  Beta virt. eigenvalues --    4.49188   4.49595   4.49634   4.49857   4.50221
  Beta virt. eigenvalues --    4.50384   4.50907   4.50930   4.52081   4.52519
  Beta virt. eigenvalues --    4.53031   4.53453   4.53715   4.54191   4.55056
  Beta virt. eigenvalues --    4.55303   4.55592   4.55969   4.56217   4.56449
  Beta virt. eigenvalues --    4.56863   4.57257   4.58350   4.58504   4.58731
  Beta virt. eigenvalues --    4.58931   4.59518   4.59960   4.60347   4.60961
  Beta virt. eigenvalues --    4.61548   4.61958   4.62252   4.62499   4.62720
  Beta virt. eigenvalues --    4.63235   4.63587   4.63782   4.64011   4.64400
  Beta virt. eigenvalues --    4.64948   4.65572   4.66141   4.66498   4.66704
  Beta virt. eigenvalues --    4.67329   4.67501   4.67686   4.68055   4.68231
  Beta virt. eigenvalues --    4.68341   4.68438   4.68827   4.69135   4.69342
  Beta virt. eigenvalues --    4.69590   4.69800   4.69891   4.70202   4.70742
  Beta virt. eigenvalues --    4.70934   4.71030   4.71723   4.72289   4.72609
  Beta virt. eigenvalues --    4.72779   4.72999   4.73746   4.73992   4.74656
  Beta virt. eigenvalues --    4.75495   4.75550   4.75671   4.76131   4.76669
  Beta virt. eigenvalues --    4.77551   4.78392   4.78713   4.78930   4.79467
  Beta virt. eigenvalues --    4.79635   4.80364   4.80997   4.81065   4.81315
  Beta virt. eigenvalues --    4.81544   4.81699   4.82366   4.82579   4.83007
  Beta virt. eigenvalues --    4.83641   4.84190   4.84752   4.84936   4.85322
  Beta virt. eigenvalues --    4.85986   4.86341   4.86815   4.86869   4.87089
  Beta virt. eigenvalues --    4.87867   4.88013   4.88652   4.89208   4.89518
  Beta virt. eigenvalues --    4.90030   4.90721   4.91206   4.91274   4.91440
  Beta virt. eigenvalues --    4.91812   4.92121   4.92224   4.92553   4.93048
  Beta virt. eigenvalues --    4.93142   4.93262   4.93416   4.93488   4.93927
  Beta virt. eigenvalues --    4.94207   4.94549   4.94881   4.95114   4.95241
  Beta virt. eigenvalues --    4.95428   4.95931   4.96168   4.96583   4.96813
  Beta virt. eigenvalues --    4.96902   4.97278   4.97531   4.97693   4.97762
  Beta virt. eigenvalues --    4.98180   4.98555   4.98682   4.99190   4.99400
  Beta virt. eigenvalues --    4.99427   4.99693   4.99945   5.00331   5.00522
  Beta virt. eigenvalues --    5.01233   5.01949   5.02898   5.03210   5.03642
  Beta virt. eigenvalues --    5.03990   5.04596   5.04750   5.05660   5.06585
  Beta virt. eigenvalues --    5.06897   5.07028   5.07280   5.07704   5.08592
  Beta virt. eigenvalues --    5.09164   5.09611   5.10288   5.10766   5.11531
  Beta virt. eigenvalues --    5.11816   5.12209   5.13032   5.13504   5.14001
  Beta virt. eigenvalues --    5.14378   5.14969   5.15170   5.15829   5.16366
  Beta virt. eigenvalues --    5.17233   5.17602   5.18157   5.18601   5.18733
  Beta virt. eigenvalues --    5.18899   5.19047   5.20256   5.20960   5.21263
  Beta virt. eigenvalues --    5.21308   5.21514   5.21730   5.21843   5.22323
  Beta virt. eigenvalues --    5.22803   5.23151   5.23281   5.23480   5.24273
  Beta virt. eigenvalues --    5.24326   5.24570   5.25769   5.25885   5.26230
  Beta virt. eigenvalues --    5.26649   5.26809   5.27178   5.27462   5.27623
  Beta virt. eigenvalues --    5.27787   5.27974   5.28497   5.28762   5.29345
  Beta virt. eigenvalues --    5.29794   5.30151   5.30459   5.30772   5.30892
  Beta virt. eigenvalues --    5.31202   5.31394   5.31767   5.32017   5.32456
  Beta virt. eigenvalues --    5.32591   5.32783   5.32896   5.33175   5.33398
  Beta virt. eigenvalues --    5.33987   5.34203   5.34654   5.35019   5.36098
  Beta virt. eigenvalues --    5.36417   5.36687   5.36947   5.37467   5.37917
  Beta virt. eigenvalues --    5.38526   5.38694   5.39205   5.39326   5.39769
  Beta virt. eigenvalues --    5.39981   5.40568   5.40792   5.41020   5.41081
  Beta virt. eigenvalues --    5.41245   5.41403   5.41875   5.42482   5.43155
  Beta virt. eigenvalues --    5.43996   5.44218   5.44509   5.45088   5.45281
  Beta virt. eigenvalues --    5.45727   5.46091   5.47143   5.48355   5.48708
  Beta virt. eigenvalues --    5.49248   5.49509   5.49874   5.50219   5.50652
  Beta virt. eigenvalues --    5.50823   5.51396   5.51733   5.52834   5.53342
  Beta virt. eigenvalues --    5.53376   5.53726   5.54221   5.54600   5.55013
  Beta virt. eigenvalues --    5.55673   5.56097   5.56444   5.57310   5.58729
  Beta virt. eigenvalues --    5.59531   5.59585   5.59792   5.60058   5.60344
  Beta virt. eigenvalues --    5.61060   5.61446   5.61809   5.61986   5.62000
  Beta virt. eigenvalues --    5.62332   5.62807   5.63807   5.63844   5.64541
  Beta virt. eigenvalues --    5.64746   5.65183   5.65335   5.65754   5.65962
  Beta virt. eigenvalues --    5.66174   5.66949   5.67515   5.68175   5.68751
  Beta virt. eigenvalues --    5.69378   5.70471   5.71171   5.71415   5.72743
  Beta virt. eigenvalues --    5.73642   5.74222   5.75425   5.76034   5.76285
  Beta virt. eigenvalues --    5.77012   5.78320   5.78715   5.79547   5.80225
  Beta virt. eigenvalues --    5.82068   5.82813   5.84190   5.84213   5.84810
  Beta virt. eigenvalues --    5.85533   5.87464   5.88376   5.91238   5.92730
  Beta virt. eigenvalues --    5.94045   5.94346   5.96487   5.97076   5.99063
  Beta virt. eigenvalues --    6.01963   6.02007   6.02062   6.03095   6.03701
  Beta virt. eigenvalues --    6.05830   6.07551   6.11355   6.13289   6.16897
  Beta virt. eigenvalues --    6.17005   6.17351   6.17461   6.18099   6.18797
  Beta virt. eigenvalues --    6.24160   6.29142   6.30513   6.34752   6.39598
  Beta virt. eigenvalues --    6.39934   6.40038   6.40485   6.41059   6.41530
  Beta virt. eigenvalues --    6.42388   6.42732   6.47773   6.47829   6.49073
  Beta virt. eigenvalues --    6.65605   6.69519   6.69543   6.74507   6.74518
  Beta virt. eigenvalues --    6.74940   6.82626   6.82858   6.83661   6.83797
  Beta virt. eigenvalues --    6.83897   6.85427   6.86671   6.91032   6.91068
  Beta virt. eigenvalues --    6.94469   6.96507   6.97607   6.99211   7.00592
  Beta virt. eigenvalues --    7.01229   7.05091   7.06123   7.06981   7.11627
  Beta virt. eigenvalues --    7.15558   7.17730   7.18188   7.20251   7.22799
  Beta virt. eigenvalues --    7.24685   7.27234   7.27430   7.27747   7.33770
  Beta virt. eigenvalues --    7.34666   7.44631   7.44807   7.66018   7.68286
  Beta virt. eigenvalues --    8.47053   8.50304   8.57516   8.62483   8.82725
  Beta virt. eigenvalues --    8.88612   8.91717   8.93559   8.94230   9.01367
  Beta virt. eigenvalues --   15.86659  22.83758  22.88071  22.88465  22.90516
  Beta virt. eigenvalues --   22.95607  22.98630  23.12103  23.13132  23.13896
  Beta virt. eigenvalues --   23.18056  23.18541  23.19854  23.20941  23.25102
  Beta virt. eigenvalues --   23.25275  23.27880  23.28273  23.30342  23.30513
  Beta virt. eigenvalues --   23.32060  23.32974  23.35131  23.35885  23.36356
  Beta virt. eigenvalues --   23.36455  23.38283  23.41724  23.46348  23.46427
  Beta virt. eigenvalues --   23.48766  23.51629  23.52763  23.57516  23.59405
  Beta virt. eigenvalues --   23.60032  23.63027  23.64856  23.65228  23.70821
  Beta virt. eigenvalues --   23.71900  23.74432  23.80102  23.88176  23.92715
  Beta virt. eigenvalues --   24.07476  24.09848  24.10455  24.22200  32.49597
  Beta virt. eigenvalues --   33.13724  33.14774  33.30513  44.12944  44.17516
  Beta virt. eigenvalues --   44.21407  44.48976  44.49097  57.43006  57.59556
          Condensed to atoms (all electrons):
          Atomic-Atomic Spin Densities.
 Mulliken charges and spin densities:
               1          2
     1  C   -0.307167   0.000000
     2  C   -0.443357  -0.000000
     3  C    0.019244   0.000001
     4  C    0.084607  -0.000000
     5  C   -0.456066  -0.000000
     6  C    0.084473   0.000002
     7  C    0.140609   0.000001
     8  C   -0.237115   0.000012
     9  C   -0.199584   0.000709
    10  C   -0.077965   0.000772
    11  C    0.001065   0.000019
    12  C    0.319336  -0.000180
    13  O   -0.499780   0.000266
    14  N   -0.242105  -0.000555
    15  C   -0.105629   0.005456
    16  C   -0.345597  -0.009752
    17  C   -0.012290   0.187882
    18  C   -0.175626  -0.095128
    19  C   -0.193481   0.175713
    20  C    0.046945  -0.109937
    21  N    0.341952   0.350578
    22  O   -0.619931   0.216814
    23  O   -0.620578   0.215124
    24  C   -0.202977   0.160718
    25  C   -0.139713  -0.090629
    26  C   -0.088261   0.000014
    27  C   -0.163552  -0.000061
    28  C    0.056370   0.000001
    29  C    0.118747  -0.000002
    30  C   -0.465149  -0.000000
    31  C    0.013677   0.000001
    32  C   -0.421826   0.000000
    33  C   -0.303737   0.000000
    34  C    0.131709  -0.000001
    35  C   -0.147776   0.000001
    36  C   -0.096949  -0.000001
    37  C    0.017293   0.000001
    38  C   -0.187874  -0.000001
    39  C   -0.164502   0.000000
    40  C    0.225104  -0.000001
    41  O   -0.301420  -0.000000
    42  C   -0.247831   0.000000
    43  C   -0.187316   0.000000
    44  C   -0.128829  -0.000000
    45  N   -0.107244   0.000000
    46  B    0.346544  -0.000000
    47  F   -0.345729  -0.000000
    48  F   -0.348315   0.000000
    49  N   -0.093413   0.000000
    50  C    0.108887   0.000000
    51  C   -0.140802   0.000000
    52  C   -0.071012  -0.000000
    53  C    0.011192   0.000000
    54  C   -0.159174  -0.000000
    55  C   -0.179435   0.000000
    56  C    0.222179  -0.000000
    57  O   -0.300855  -0.000000
    58  C   -0.248454   0.000000
    59  C   -0.174608   0.000000
    60  C   -0.151321  -0.000000
    61  H    0.120593  -0.000000
    62  H    0.128780  -0.000000
    63  H    0.116711  -0.000000
    64  H    0.144520   0.000000
    65  H    0.134848   0.000000
    66  H    0.169162   0.000001
    67  H    0.157093  -0.000000
    68  H    0.129535  -0.000000
    69  H    0.175426   0.000029
    70  H    0.150977  -0.001907
    71  H    0.212535   0.000826
    72  H    0.138758  -0.000934
    73  H    0.144373   0.000692
    74  H    0.147403   0.005024
    75  H    0.141335   0.000812
    76  H    0.149927   0.001579
    77  H    0.162224  -0.008096
    78  H    0.162050  -0.007280
    79  H    0.143036   0.001368
    80  H    0.167451   0.000047
    81  H    0.169398   0.000005
    82  H    0.167707  -0.000001
    83  H    0.128131   0.000000
    84  H    0.169811  -0.000001
    85  H    0.132311   0.000000
    86  H    0.129446   0.000000
    87  H    0.112357  -0.000000
    88  H    0.126207   0.000000
    89  H    0.116706  -0.000000
    90  H    0.114903  -0.000000
    91  H    0.128151   0.000000
    92  H    0.149264   0.000000
    93  H    0.151348  -0.000000
    94  H    0.148188  -0.000000
    95  H    0.149377   0.000000
    96  H    0.147832  -0.000000
    97  H    0.156809  -0.000000
    98  H    0.140996   0.000000
    99  H    0.114563  -0.000000
   100  H    0.119218   0.000000
   101  H    0.146021   0.000000
   102  H    0.156596  -0.000000
   103  H    0.148103  -0.000000
   104  H    0.147932  -0.000000
   105  H    0.149514   0.000000
   106  H    0.154617  -0.000000
   107  H    0.142159   0.000000
 Sum of Mulliken charges =  -1.00000   1.00000
 Mulliken charges and spin densities with hydrogens summed into heavy atoms:
               1          2
     1  C    0.058916   0.000000
     2  C   -0.163989  -0.000000
     3  C    0.019244   0.000001
     4  C    0.084607  -0.000000
     5  C   -0.000276   0.000000
     6  C    0.084473   0.000002
     7  C    0.140609   0.000001
     8  C   -0.237115   0.000012
     9  C   -0.024158   0.000738
    10  C    0.073012  -0.001135
    11  C    0.001065   0.000019
    12  C    0.319336  -0.000180
    13  O   -0.499780   0.000266
    14  N   -0.029570   0.000271
    15  C    0.177502   0.005215
    16  C   -0.056859  -0.003916
    17  C   -0.012290   0.187882
    18  C   -0.025699  -0.093549
    19  C   -0.031257   0.167616
    20  C    0.046945  -0.109937
    21  N    0.341952   0.350578
    22  O   -0.619931   0.216814
    23  O   -0.620578   0.215124
    24  C   -0.040927   0.153438
    25  C    0.003323  -0.089261
    26  C    0.079191   0.000061
    27  C    0.005846  -0.000056
    28  C    0.056370   0.000001
    29  C    0.118747  -0.000002
    30  C    0.000500  -0.000001
    31  C    0.013677   0.000001
    32  C   -0.160069   0.000000
    33  C    0.051534  -0.000000
    34  C    0.131709  -0.000001
    35  C   -0.032873   0.000001
    36  C    0.031202  -0.000001
    37  C    0.017293   0.000001
    38  C   -0.038610  -0.000001
    39  C   -0.013154   0.000000
    40  C    0.225104  -0.000001
    41  O   -0.301420  -0.000000
    42  C    0.197567  -0.000000
    43  C   -0.030507   0.000000
    44  C    0.012167  -0.000000
    45  N   -0.107244   0.000000
    46  B    0.346544  -0.000000
    47  F   -0.345729  -0.000000
    48  F   -0.348315   0.000000
    49  N   -0.093413   0.000000
    50  C    0.108887   0.000000
    51  C   -0.026238   0.000000
    52  C    0.048206  -0.000000
    53  C    0.011192   0.000000
    54  C   -0.013153  -0.000000
    55  C   -0.022839   0.000000
    56  C    0.222179  -0.000000
    57  O   -0.300855  -0.000000
    58  C    0.197095  -0.000000
    59  C   -0.019991   0.000000
    60  C   -0.009162  -0.000000
 Electronic spatial extent (au):  <R**2>=          76756.5951
 Charge=             -1.0000 electrons
 Dipole moment (field-independent basis, Debye):
    X=             40.2824    Y=            -10.6901    Z=            -16.3140  Tot=             44.7560
 Quadrupole moment (field-independent basis, Debye-Ang):
   XX=           -689.1458   YY=           -278.3545   ZZ=           -480.2038
   XY=             79.5664   XZ=            182.6872   YZ=            -25.7547
 Traceless Quadrupole moment (field-independent basis, Debye-Ang):
   XX=           -206.5778   YY=            204.2135   ZZ=              2.3642
   XY=             79.5664   XZ=            182.6872   YZ=            -25.7547
 Octapole moment (field-independent basis, Debye-Ang**2):
  XXX=           3903.9268  YYY=            -17.2465  ZZZ=           -399.2792  XYY=            690.0075
  XXY=           -906.7357  XXZ=          -1466.0259  XZZ=           1018.1100  YZZ=           -158.2223
  YYZ=              8.7917  XYZ=            342.7988
 Hexadecapole moment (field-independent basis, Debye-Ang**3):
 XXXX=        -101633.8436 YYYY=         -17835.5295 ZZZZ=          -9031.8723 XXXY=           5685.3155
 XXXZ=          16714.9061 YYYX=            523.5592 YYYZ=            128.3501 ZZZX=           3763.3915
 ZZZY=           -669.0514 XXYY=         -13056.5512 XXZZ=         -22890.3512 YYZZ=          -5115.5415
 XXYZ=          -2742.1752 YYXZ=           1714.1049 ZZXY=           1569.9581
 N-N= 7.770263993523D+03 E-N=-2.181109460045D+04  KE= 2.662678375013D+03
 Leave Link  601 at Fri Oct 10 20:27:59 2025, MaxMem= 30870077440 cpu:             201.9 elap:               3.7
 (Enter /work/home/accqbws0vm/apprepo/gaussian/16-hy/scripts/../app/g16/l9999.exe)
 1\1\GINC-K02R1N22\SP\UM062X\def2TZVPP\C48H47B1F2N4O5(1-,2)\ACCQBWS0VM\
 10-Oct-2025\0\\#p M062X/DEF2TZVPP scrf=(solvent=water) em=GD3\\Energy 
 calculation for M100034776_reduced\\-1,2\C,0,0.864051,-5.428295,0.8468
 48\C,0,0.911007,-4.884914,-0.591865\C,0,0.815801,-3.38364,-0.674365\C,
 0,-0.329532,-2.655504,-0.9996\C,0,-1.658853,-3.245494,-1.367098\C,0,0.
 012951,-1.263922,-0.905855\C,0,-0.743218,-0.096595,-1.116578\C,0,-2.19
 0163,-0.209311,-1.473139\C,0,-3.159356,-0.390957,-0.477985\C,0,-4.5088
 88,-0.487176,-0.812005\C,0,-4.915672,-0.411921,-2.152375\C,0,-6.35072,
 -0.491282,-2.587498\O,0,-6.703328,-0.085581,-3.712175\N,0,-7.235709,-1
 .024361,-1.722453\C,0,-8.664208,-1.091552,-2.022395\C,0,-9.449625,-1.7
 12644,-0.859929\C,0,-9.37527,-0.923953,0.429841\C,0,-8.618933,-1.37593
 7,1.524784\C,0,-8.522371,-0.643552,2.703288\C,0,-9.195985,0.592081,2.8
 19683\N,0,-9.105185,1.342329,3.993074\O,0,-9.723162,2.487499,4.08299\O
 ,0,-8.400244,0.897322,4.996214\C,0,-9.968062,1.05744,1.73004\C,0,-10.0
 47391,0.305766,0.566373\C,0,-3.944469,-0.225281,-3.145526\C,0,-2.59689
 4,-0.125444,-2.812002\C,0,-0.162517,1.179128,-0.988211\C,0,-0.756194,2
 .485571,-1.020322\C,0,-2.192584,2.854166,-1.247377\C,0,0.266489,3.3974
 02,-0.774012\C,0,0.140526,4.895801,-0.68659\C,0,-0.119267,5.40344,0.74
 2249\C,0,1.478156,2.660688,-0.607145\C,0,2.750154,3.296535,-0.35647\C,
 0,4.005521,2.810381,-0.534103\C,0,5.247549,3.523376,-0.259516\C,0,5.31
 3057,4.802894,0.327165\C,0,6.527729,5.4377,0.567099\C,0,7.727696,4.796
 532,0.222025\O,0,8.972048,5.328491,0.416227\C,0,9.0677,6.626299,1.0136
 17\C,0,7.689949,3.520393,-0.360793\C,0,6.471489,2.901372,-0.593114\N,0
 ,1.205573,1.324264,-0.73123\B,0,2.175271,0.135557,-0.51587\F,0,3.12623
 8,0.07256,-1.555739\F,0,2.842445,0.281877,0.710479\N,0,1.346485,-1.175
 101,-0.52484\C,0,1.851858,-2.43979,-0.377521\C,0,3.221764,-2.614899,0.
 042841\C,0,3.938055,-3.76814,0.084623\C,0,5.326172,-3.89842,0.512128\C
 ,0,6.126114,-2.814741,0.944623\C,0,7.439135,-3.005736,1.338211\C,0,8.0
 09658,-4.291543,1.314774\O,0,9.312109,-4.369934,1.72187\C,0,9.946048,-
 5.653692,1.710695\C,0,7.241503,-5.382542,0.89059\C,0,5.920719,-5.17410
 3,0.497693\H,0,-0.079513,-5.157606,1.331723\H,0,0.945105,-6.520389,0.8
 49525\H,0,1.67971,-5.027868,1.456404\H,0,1.819977,-5.235318,-1.091112\
 H,0,0.084979,-5.325585,-1.156887\H,0,-2.405344,-3.083953,-0.58266\H,0,
 -2.060022,-2.80719,-2.284224\H,0,-1.575257,-4.322676,-1.521827\H,0,-2.
 857673,-0.444869,0.563098\H,0,-5.23407,-0.595375,-0.011442\H,0,-6.9200
 99,-1.368301,-0.826296\H,0,-9.035447,-0.082579,-2.234696\H,0,-8.816827
 ,-1.685654,-2.930416\H,0,-10.490621,-1.795124,-1.193242\H,0,-9.089114,
 -2.73377,-0.69097\H,0,-8.097983,-2.32809,1.452954\H,0,-7.936498,-1.008
 218,3.537401\H,0,-10.494309,1.999176,1.820135\H,0,-10.648591,0.678459,
 -0.259906\H,0,-4.25733,-0.15787,-4.181577\H,0,-1.855002,0.016637,-3.59
 1463\H,0,-2.856901,2.36637,-0.528425\H,0,-2.327717,3.932554,-1.144072\
 H,0,-2.538816,2.568165,-2.245036\H,0,1.047735,5.36688,-1.078759\H,0,-0
 .673577,5.229638,-1.337822\H,0,0.693641,5.117746,1.418082\H,0,-0.20363
 2,6.495276,0.756729\H,0,-1.048637,4.986415,1.144027\H,0,2.644071,4.324
 814,-0.023195\H,0,4.133711,1.814754,-0.942234\H,0,4.400804,5.318016,0.
 61089\H,0,6.533187,6.420699,1.021895\H,0,8.638723,6.632445,2.021213\H,
 0,10.133952,6.847605,1.071757\H,0,8.571226,7.384278,0.398497\H,0,8.624
 474,3.033585,-0.620855\H,0,6.455337,1.912708,-1.043511\H,0,3.708044,-1
 .700739,0.361121\H,0,3.481387,-4.701157,-0.225202\H,0,5.717128,-1.8100
 23,0.972083\H,0,8.048873,-2.170815,1.668722\H,0,9.438961,-6.352666,2.3
 8421\H,0,9.974115,-6.073348,0.699515\H,0,10.964378,-5.484638,2.062284\
 H,0,7.656473,-6.382584,0.86298\H,0,5.330851,-6.025747,0.16961\\Version
 =ES64L-G16RevA.03\State=2-A\HF=-2677.283404\S2=0.765809\S2-1=0.\S2A=0.
 750173\RMSD=1.727e-09\Dipole=15.8483166,-4.2058161,-6.4184179\Quadrupo
 le=-153.5854971,151.8277494,1.7577477,59.1556588,135.8234227,-19.14800
 71\PG=C01 [X(C48H47B1F2N4O5)]\\@


 PERICLES, SOPHOCLES,
 PELOPONESIAN WAR,
 FRENCH VERBS, LATIN VERBS
 H2SO4.
 Job cpu time:       3 days  7 hours 13 minutes 50.9 seconds.
 Elapsed time:       0 days  1 hours 15 minutes  8.9 seconds.
 File lengths (MBytes):  RWF=   6749 Int=      0 D2E=      0 Chk=    440 Scr=      1
 Normal termination of Gaussian 16 at Fri Oct 10 20:27:59 2025.
