 Entering Gaussian System, Link 0=g16
 Input=M100034546_reduced_sp.gjf
 Output=M100034546_reduced_sp.log
 Initial command:
 /public/software/gauss/g16/l1.exe "/public/home/baiding/1106_34546/tmp_M100034546_reduced_sp_1571653/Gau-4082314.inp" -scrdir="/public/home/baiding/1106_34546/tmp_M100034546_reduced_sp_1571653/"
 Entering Link 1 = /public/software/gauss/g16/l1.exe PID=   4082315.
  
 Copyright (c) 1988,1990,1992,1993,1995,1998,2003,2009,2016,
            Gaussian, Inc.  All Rights Reserved.
  
 This is part of the Gaussian(R) 16 program.  It is based on
 the Gaussian(R) 09 system (copyright 2009, Gaussian, Inc.),
 the Gaussian(R) 03 system (copyright 2003, Gaussian, Inc.),
 the Gaussian(R) 98 system (copyright 1998, Gaussian, Inc.),
 the Gaussian(R) 94 system (copyright 1995, Gaussian, Inc.),
 the Gaussian 92(TM) system (copyright 1992, Gaussian, Inc.),
 the Gaussian 90(TM) system (copyright 1990, Gaussian, Inc.),
 the Gaussian 88(TM) system (copyright 1988, Gaussian, Inc.),
 the Gaussian 86(TM) system (copyright 1986, Carnegie Mellon
 University), and the Gaussian 82(TM) system (copyright 1983,
 Carnegie Mellon University). Gaussian is a federally registered
 trademark of Gaussian, Inc.
  
 This software contains proprietary and confidential information,
 including trade secrets, belonging to Gaussian, Inc.
  
 This software is provided under written license and may be
 used, copied, transmitted, or stored only in accord with that
 written license.
  
 The following legend is applicable only to US Government
 contracts under FAR:
  
                    RESTRICTED RIGHTS LEGEND
  
 Use, reproduction and disclosure by the US Government is
 subject to restrictions as set forth in subparagraphs (a)
 and (c) of the Commercial Computer Software - Restricted
 Rights clause in FAR 52.227-19.
  
 Gaussian, Inc.
 340 Quinnipiac St., Bldg. 40, Wallingford CT 06492
  
  
 ---------------------------------------------------------------
 Warning -- This program may not be used in any manner that
 competes with the business of Gaussian, Inc. or will provide
 assistance to any competitor of Gaussian, Inc.  The licensee
 of this program is prohibited from giving any competitor of
 Gaussian, Inc. access to this program.  By using this program,
 the user acknowledges that Gaussian, Inc. is engaged in the
 business of creating and licensing software in the field of
 computational chemistry and represents and warrants to the
 licensee that it is not a competitor of Gaussian, Inc. and that
 it will not use this program in any manner prohibited above.
 ---------------------------------------------------------------
  

 Cite this work as:
 Gaussian 16, Revision A.03,
 M. J. Frisch, G. W. Trucks, H. B. Schlegel, G. E. Scuseria, 
 M. A. Robb, J. R. Cheeseman, G. Scalmani, V. Barone, 
 G. A. Petersson, H. Nakatsuji, X. Li, M. Caricato, A. V. Marenich, 
 J. Bloino, B. G. Janesko, R. Gomperts, B. Mennucci, H. P. Hratchian, 
 J. V. Ortiz, A. F. Izmaylov, J. L. Sonnenberg, D. Williams-Young, 
 F. Ding, F. Lipparini, F. Egidi, J. Goings, B. Peng, A. Petrone, 
 T. Henderson, D. Ranasinghe, V. G. Zakrzewski, J. Gao, N. Rega, 
 G. Zheng, W. Liang, M. Hada, M. Ehara, K. Toyota, R. Fukuda, 
 J. Hasegawa, M. Ishida, T. Nakajima, Y. Honda, O. Kitao, H. Nakai, 
 T. Vreven, K. Throssell, J. A. Montgomery, Jr., J. E. Peralta, 
 F. Ogliaro, M. J. Bearpark, J. J. Heyd, E. N. Brothers, K. N. Kudin, 
 V. N. Staroverov, T. A. Keith, R. Kobayashi, J. Normand, 
 K. Raghavachari, A. P. Rendell, J. C. Burant, S. S. Iyengar, 
 J. Tomasi, M. Cossi, J. M. Millam, M. Klene, C. Adamo, R. Cammi, 
 J. W. Ochterski, R. L. Martin, K. Morokuma, O. Farkas, 
 J. B. Foresman, and D. J. Fox, Gaussian, Inc., Wallingford CT, 2016.
 
 ******************************************
 Gaussian 16:  ES64L-G16RevA.03 25-Dec-2016
                 6-Nov-2025 
 ******************************************
 %nprocshared=64
 Will use up to   64 processors via shared memory.
 %mem=230GB
 %chk=M100034546_reduced.chk
 ----------------------------------------------
 #p M062X/DEF2TZVPP scrf=(solvent=water) em=GD3
 ----------------------------------------------
 1/38=1,172=1/1;
 2/12=2,17=6,18=5,40=1/2;
 3/5=44,7=202,11=2,25=1,30=1,70=2201,72=1,74=-55,124=31/1,2,3;
 4//1;
 5/5=2,38=5,53=1/2;
 6/7=2,8=2,9=2,10=2,28=1/1;
 99/5=1,9=1/99;
 Leave Link    1 at Thu Nov  6 22:43:31 2025, MaxMem= 30870077440 cpu:              11.1 elap:               0.2
 (Enter /public/software/gauss/g16/l101.exe)
 -----------------------------------------
 Energy calculation for M100034546_reduced
 -----------------------------------------
 Symbolic Z-matrix:
 Charge = -1 Multiplicity = 2
 B                    -0.70164   1.53936   0.03212 
 N                     0.48529   2.52253  -0.13503 
 C                     1.82608   2.15677  -0.35227 
 C                     2.17677   0.79957  -0.46879 
 C                     1.19172  -0.20738  -0.41664 
 N                    -0.16172   0.11769  -0.27357 
 C                     1.30301  -1.62815  -0.47991 
 C                    -0.0028   -2.13856  -0.37799 
 C                    -0.9002   -1.02623  -0.24434 
 C                     0.39737   3.86159  -0.07498 
 C                     1.69514   4.41798  -0.2633 
 C                     2.5995    3.34962  -0.44155 
 C                    -0.87769   4.59729   0.14853 
 C                     4.06491   3.5263   -0.68733 
 F                    -1.19823   1.60023   1.3412 
 F                    -1.72359   1.88196  -0.86638 
 C                     2.52146  -2.48385  -0.62891 
 C                    -2.3345   -0.99436  -0.12448 
 C                     3.60986   0.42939  -0.65884 
 C                     4.11044   0.13236  -1.93698 
 C                     5.44734  -0.20076  -2.11641 
 C                     6.31574  -0.25413  -1.01461 
 C                     5.82929   0.03513   0.26658 
 C                     4.48527   0.37938   0.43067 
 O                     7.6106   -0.59523  -1.29312 
 C                     8.55315  -0.67157  -0.2063 
 C                     9.903    -1.05257  -0.79206 
 C                     10.98836  -1.16504   0.28481 
 C                     12.36284  -1.53129  -0.28683 
 C                     13.45495  -1.65042   0.7822 
 C                     14.83307  -2.00381   0.21096 
 C                     15.92624  -2.12716   1.27876 
 C                     17.30616  -2.47136   0.70617 
 C                     18.39919  -2.59835   1.77371 
 C                     19.78008  -2.9368    1.20057 
 C                     20.87291  -3.06705   2.2678 
 C                     22.24806  -3.40262   1.68591 
 C                     1.98575   5.79834  -0.27068 
 C                     2.23894   6.99476  -0.28 
 C                     2.53479   8.37818  -0.29448 
 C                     3.87569   8.83778  -0.37924 
 C                     4.17129   10.18641  -0.39743 
 C                     3.12857   11.14324  -0.33309 
 C                     1.78568   10.70081  -0.2468 
 C                     1.50139   9.34964  -0.22729 
 N                     3.42113   12.50327  -0.35588 
 O                     2.4623    13.37178  -0.31237 
 O                     4.6518    12.89689  -0.42402 
 C                    -0.34971  -3.50735  -0.44471 
 C                    -0.60886  -4.69802  -0.51576 
 C                    -0.94993  -6.076    -0.59627 
 C                    -2.29747  -6.49476  -0.60542 
 C                    -2.6374   -7.83628  -0.68833 
 C                    -1.64382  -8.84569  -0.75618 
 C                    -0.29142  -8.41982  -0.76324 
 C                     0.04114  -7.07607  -0.68065 
 N                    -1.98065  -10.19082  -0.7917 
 C                    -0.95792  -11.15413  -1.19523 
 C                    -3.35757  -10.55479  -1.12182 
 C                    -3.11762  -2.06574   0.16477 
 C                    -4.56886  -2.0762    0.27965 
 C                    -5.21185  -3.28894   0.61495 
 C                    -6.5898   -3.37009   0.73813 
 C                    -7.38202  -2.22984   0.52803 
 C                    -6.76865  -1.01117   0.19386 
 C                    -5.38443  -0.94549   0.07405 
 O                    -8.72743  -2.40396   0.6706 
 C                    -9.60149  -1.27598   0.46429 
 C                    -11.0273  -1.75318   0.68583 
 C                    -12.04984  -0.62842   0.48692 
 C                    -13.49524  -1.08953   0.70694 
 C                    -14.52809   0.0253    0.50664 
 C                    -15.97381  -0.4357    0.72555 
 C                    -17.00983   0.67615   0.52321 
 C                    -18.45516   0.21359   0.7416 
 C                    -19.49251   1.32399   0.53799 
 C                    -20.93745   0.86077   0.75617 
 C                    -21.97572   1.9701    0.55213 
 C                    -23.41477   1.4978    0.77218 
 H                    -1.54929   4.48205  -0.7084 
 H                    -1.40207   4.20811   1.0263 
 H                    -0.67614   5.65955   0.29491 
 H                     4.28173   4.58318  -0.86329 
 H                     4.66653   3.19966   0.16752 
 H                     4.40771   2.95601  -1.55487 
 H                     3.30097  -2.21306   0.08776 
 H                     2.25547  -3.5318   -0.47053 
 H                     2.96107  -2.39732  -1.62784 
 H                    -2.79029  -0.02326  -0.28151 
 H                     3.44801   0.1678   -2.79642 
 H                     5.8381   -0.42476  -3.10385 
 H                     6.47809  -0.00085   1.13279 
 H                     4.11692   0.60636   1.42655 
 H                     8.60631   0.29977   0.30115 
 H                     8.21336  -1.4203    0.52044 
 H                     9.80323  -2.00707  -1.32371 
 H                     10.19152  -0.29954  -1.53599 
 H                     11.0633  -0.21274   0.82754 
 H                     10.6896  -1.91907   1.02589 
 H                     12.2858  -2.48074  -0.83502 
 H                     12.65962  -0.77436  -1.02636 
 H                     13.52454  -0.70335   1.33598 
 H                     13.16051  -2.41263   1.51758 
 H                     14.76289  -2.9488   -0.34641 
 H                     15.12753  -1.23925  -0.52206 
 H                     15.99226  -1.18417   1.84006 
 H                     15.6346  -2.89592   2.00854 
 H                     17.23984  -3.4127    0.14212 
 H                     17.59842  -1.70071  -0.02138 
 H                     18.46302  -1.65836   2.34031 
 H                     18.10874  -3.37174   2.49912 
 H                     19.71738  -3.87582   0.63201 
 H                     20.07274  -2.16228   0.4771 
 H                     20.93566  -2.12951   2.83691 
 H                     20.58221  -3.84253   2.98955 
 H                     23.00614  -3.49039   2.47176 
 H                     22.22611  -4.35228   1.13849 
 H                     22.58293  -2.62715   0.98697 
 H                     4.68087   8.11144  -0.43081 
 H                     5.19691   10.5262  -0.4616 
 H                     0.99039   11.43309  -0.19626 
 H                     0.46937   9.01949  -0.16098 
 H                    -3.08698  -5.75053  -0.55681 
 H                    -3.68703  -8.10038  -0.70079 
 H                     0.5103   -9.14375  -0.83417 
 H                     1.08801  -6.78832  -0.68684 
 H                    -0.5879   -10.97945  -2.21608 
 H                    -0.10436  -11.12956  -0.51305 
 H                    -1.38337  -12.157   -1.1501 
 H                    -4.05861  -10.14614  -0.38948 
 H                    -3.66165  -10.20798  -2.12022 
 H                    -3.4501   -11.64069  -1.09184 
 H                    -2.6425   -3.02556   0.34256 
 H                    -4.60873  -4.17756   0.78179 
 H                    -7.07555  -4.30584   0.99556 
 H                    -7.36002  -0.11943   0.02689 
 H                    -4.93495   0.00795  -0.18501 
 H                    -9.33929  -0.47747   1.1693 
 H                    -9.46776  -0.89317  -0.55505 
 H                    -11.2376  -2.57644  -0.0082 
 H                    -11.11165  -2.15988   1.70128 
 H                    -11.8226   0.19709   1.17532 
 H                    -11.94912  -0.2198   -0.52791 
 H                    -13.71839  -1.91868   0.0209 
 H                    -13.59387  -1.49796   1.7225 
 H                    -14.30401   0.85467   1.19249 
 H                    -14.42763   0.43386  -0.50895 
 H                    -16.19617  -1.26665   0.04093 
 H                    -16.07388  -0.84343   1.74159 
 H                    -16.78799   1.50716   1.20794 
 H                    -16.9096   1.08393  -0.49281 
 H                    -18.67622  -0.61819   0.05753 
 H                    -18.55537  -0.19356   1.75789 
 H                    -19.27179   2.15584   1.2221 
 H                    -19.39239   1.73112  -0.47834 
 H                    -21.1593   0.02878   0.0724 
 H                    -21.03901   0.45416   1.77269 
 H                    -21.75527   2.80142   1.23559 
 H                    -21.87549   2.37623  -0.46364 
 H                    -24.13231   2.31128   0.61948 
 H                    -23.67713   0.68946   0.07953 
 H                    -23.55594   1.11759   1.79076 
 
 ITRead=  0  0  0  0  0  0  0  0  0  0  0  0  0  0  0  0  0  0  0  0
 ITRead=  0  0  0  0  0  0  0  0  0  0  0  0  0  0  0  0  0  0  0  0
 ITRead=  0  0  0  0  0  0  0  0  0  0  0  0  0  0  0  0  0  0  0  0
 ITRead=  0  0  0  0  0  0  0  0  0  0  0  0  0  0  0  0  0  0  0  0
 ITRead=  0  0  0  0  0  0  0  0  0  0  0  0  0  0  0  0  0  0  0  0
 ITRead=  0  0  0  0  0  0  0  0  0  0  0  0  0  0  0  0  0  0  0  0
 ITRead=  0  0  0  0  0  0  0  0  0  0  0  0  0  0  0  0  0  0  0  0
 ITRead=  0  0  0  0  0  0  0  0  0  0  0  0  0  0  0  0  0  0  0  0
 ITRead=  0  0
 MicOpt= -1 -1 -1 -1 -1 -1 -1 -1 -1 -1 -1 -1 -1 -1 -1 -1 -1 -1 -1 -1
 MicOpt= -1 -1 -1 -1 -1 -1 -1 -1 -1 -1 -1 -1 -1 -1 -1 -1 -1 -1 -1 -1
 MicOpt= -1 -1 -1 -1 -1 -1 -1 -1 -1 -1 -1 -1 -1 -1 -1 -1 -1 -1 -1 -1
 MicOpt= -1 -1 -1 -1 -1 -1 -1 -1 -1 -1 -1 -1 -1 -1 -1 -1 -1 -1 -1 -1
 MicOpt= -1 -1 -1 -1 -1 -1 -1 -1 -1 -1 -1 -1 -1 -1 -1 -1 -1 -1 -1 -1
 MicOpt= -1 -1 -1 -1 -1 -1 -1 -1 -1 -1 -1 -1 -1 -1 -1 -1 -1 -1 -1 -1
 MicOpt= -1 -1 -1 -1 -1 -1 -1 -1 -1 -1 -1 -1 -1 -1 -1 -1 -1 -1 -1 -1
 MicOpt= -1 -1 -1 -1 -1 -1 -1 -1 -1 -1 -1 -1 -1 -1 -1 -1 -1 -1 -1 -1
 MicOpt= -1 -1
 NAtoms=    162 NQM=      162 NQMF=       0 NMMI=      0 NMMIF=      0
                NMic=       0 NMicF=      0.
                    Isotopes and Nuclear Properties:
 (Nuclear quadrupole moments (NQMom) in fm**2, nuclear magnetic moments (NMagM)
  in nuclear magnetons)

  Atom         1           2           3           4           5           6           7           8           9          10
 IAtWgt=          11          14          12          12          12          14          12          12          12          12
 AtmWgt=  11.0093053  14.0030740  12.0000000  12.0000000  12.0000000  14.0030740  12.0000000  12.0000000  12.0000000  12.0000000
 NucSpn=           3           2           0           0           0           2           0           0           0           0
 AtZEff=  -0.0000000  -0.0000000  -0.0000000  -0.0000000  -0.0000000  -0.0000000  -0.0000000  -0.0000000  -0.0000000  -0.0000000
 NQMom=    4.0590000   2.0440000   0.0000000   0.0000000   0.0000000   2.0440000   0.0000000   0.0000000   0.0000000   0.0000000
 NMagM=    2.6886370   0.4037610   0.0000000   0.0000000   0.0000000   0.4037610   0.0000000   0.0000000   0.0000000   0.0000000
 AtZNuc=   5.0000000   7.0000000   6.0000000   6.0000000   6.0000000   7.0000000   6.0000000   6.0000000   6.0000000   6.0000000

  Atom        11          12          13          14          15          16          17          18          19          20
 IAtWgt=          12          12          12          12          19          19          12          12          12          12
 AtmWgt=  12.0000000  12.0000000  12.0000000  12.0000000  18.9984033  18.9984033  12.0000000  12.0000000  12.0000000  12.0000000
 NucSpn=           0           0           0           0           1           1           0           0           0           0
 AtZEff=  -0.0000000  -0.0000000  -0.0000000  -0.0000000  -0.0000000  -0.0000000  -0.0000000  -0.0000000  -0.0000000  -0.0000000
 NQMom=    0.0000000   0.0000000   0.0000000   0.0000000   0.0000000   0.0000000   0.0000000   0.0000000   0.0000000   0.0000000
 NMagM=    0.0000000   0.0000000   0.0000000   0.0000000   2.6288670   2.6288670   0.0000000   0.0000000   0.0000000   0.0000000
 AtZNuc=   6.0000000   6.0000000   6.0000000   6.0000000   9.0000000   9.0000000   6.0000000   6.0000000   6.0000000   6.0000000

  Atom        21          22          23          24          25          26          27          28          29          30
 IAtWgt=          12          12          12          12          16          12          12          12          12          12
 AtmWgt=  12.0000000  12.0000000  12.0000000  12.0000000  15.9949146  12.0000000  12.0000000  12.0000000  12.0000000  12.0000000
 NucSpn=           0           0           0           0           0           0           0           0           0           0
 AtZEff=  -0.0000000  -0.0000000  -0.0000000  -0.0000000  -0.0000000  -0.0000000  -0.0000000  -0.0000000  -0.0000000  -0.0000000
 NQMom=    0.0000000   0.0000000   0.0000000   0.0000000   0.0000000   0.0000000   0.0000000   0.0000000   0.0000000   0.0000000
 NMagM=    0.0000000   0.0000000   0.0000000   0.0000000   0.0000000   0.0000000   0.0000000   0.0000000   0.0000000   0.0000000
 AtZNuc=   6.0000000   6.0000000   6.0000000   6.0000000   8.0000000   6.0000000   6.0000000   6.0000000   6.0000000   6.0000000

  Atom        31          32          33          34          35          36          37          38          39          40
 IAtWgt=          12          12          12          12          12          12          12          12          12          12
 AtmWgt=  12.0000000  12.0000000  12.0000000  12.0000000  12.0000000  12.0000000  12.0000000  12.0000000  12.0000000  12.0000000
 NucSpn=           0           0           0           0           0           0           0           0           0           0
 AtZEff=  -0.0000000  -0.0000000  -0.0000000  -0.0000000  -0.0000000  -0.0000000  -0.0000000  -0.0000000  -0.0000000  -0.0000000
 NQMom=    0.0000000   0.0000000   0.0000000   0.0000000   0.0000000   0.0000000   0.0000000   0.0000000   0.0000000   0.0000000
 NMagM=    0.0000000   0.0000000   0.0000000   0.0000000   0.0000000   0.0000000   0.0000000   0.0000000   0.0000000   0.0000000
 AtZNuc=   6.0000000   6.0000000   6.0000000   6.0000000   6.0000000   6.0000000   6.0000000   6.0000000   6.0000000   6.0000000

  Atom        41          42          43          44          45          46          47          48          49          50
 IAtWgt=          12          12          12          12          12          14          16          16          12          12
 AtmWgt=  12.0000000  12.0000000  12.0000000  12.0000000  12.0000000  14.0030740  15.9949146  15.9949146  12.0000000  12.0000000
 NucSpn=           0           0           0           0           0           2           0           0           0           0
 AtZEff=  -0.0000000  -0.0000000  -0.0000000  -0.0000000  -0.0000000  -0.0000000  -0.0000000  -0.0000000  -0.0000000  -0.0000000
 NQMom=    0.0000000   0.0000000   0.0000000   0.0000000   0.0000000   2.0440000   0.0000000   0.0000000   0.0000000   0.0000000
 NMagM=    0.0000000   0.0000000   0.0000000   0.0000000   0.0000000   0.4037610   0.0000000   0.0000000   0.0000000   0.0000000
 AtZNuc=   6.0000000   6.0000000   6.0000000   6.0000000   6.0000000   7.0000000   8.0000000   8.0000000   6.0000000   6.0000000

  Atom        51          52          53          54          55          56          57          58          59          60
 IAtWgt=          12          12          12          12          12          12          14          12          12          12
 AtmWgt=  12.0000000  12.0000000  12.0000000  12.0000000  12.0000000  12.0000000  14.0030740  12.0000000  12.0000000  12.0000000
 NucSpn=           0           0           0           0           0           0           2           0           0           0
 AtZEff=  -0.0000000  -0.0000000  -0.0000000  -0.0000000  -0.0000000  -0.0000000  -0.0000000  -0.0000000  -0.0000000  -0.0000000
 NQMom=    0.0000000   0.0000000   0.0000000   0.0000000   0.0000000   0.0000000   2.0440000   0.0000000   0.0000000   0.0000000
 NMagM=    0.0000000   0.0000000   0.0000000   0.0000000   0.0000000   0.0000000   0.4037610   0.0000000   0.0000000   0.0000000
 AtZNuc=   6.0000000   6.0000000   6.0000000   6.0000000   6.0000000   6.0000000   7.0000000   6.0000000   6.0000000   6.0000000

  Atom        61          62          63          64          65          66          67          68          69          70
 IAtWgt=          12          12          12          12          12          12          16          12          12          12
 AtmWgt=  12.0000000  12.0000000  12.0000000  12.0000000  12.0000000  12.0000000  15.9949146  12.0000000  12.0000000  12.0000000
 NucSpn=           0           0           0           0           0           0           0           0           0           0
 AtZEff=  -0.0000000  -0.0000000  -0.0000000  -0.0000000  -0.0000000  -0.0000000  -0.0000000  -0.0000000  -0.0000000  -0.0000000
 NQMom=    0.0000000   0.0000000   0.0000000   0.0000000   0.0000000   0.0000000   0.0000000   0.0000000   0.0000000   0.0000000
 NMagM=    0.0000000   0.0000000   0.0000000   0.0000000   0.0000000   0.0000000   0.0000000   0.0000000   0.0000000   0.0000000
 AtZNuc=   6.0000000   6.0000000   6.0000000   6.0000000   6.0000000   6.0000000   8.0000000   6.0000000   6.0000000   6.0000000

  Atom        71          72          73          74          75          76          77          78          79          80
 IAtWgt=          12          12          12          12          12          12          12          12          12           1
 AtmWgt=  12.0000000  12.0000000  12.0000000  12.0000000  12.0000000  12.0000000  12.0000000  12.0000000  12.0000000   1.0078250
 NucSpn=           0           0           0           0           0           0           0           0           0           1
 AtZEff=  -0.0000000  -0.0000000  -0.0000000  -0.0000000  -0.0000000  -0.0000000  -0.0000000  -0.0000000  -0.0000000  -0.0000000
 NQMom=    0.0000000   0.0000000   0.0000000   0.0000000   0.0000000   0.0000000   0.0000000   0.0000000   0.0000000   0.0000000
 NMagM=    0.0000000   0.0000000   0.0000000   0.0000000   0.0000000   0.0000000   0.0000000   0.0000000   0.0000000   2.7928460
 AtZNuc=   6.0000000   6.0000000   6.0000000   6.0000000   6.0000000   6.0000000   6.0000000   6.0000000   6.0000000   1.0000000

  Atom        81          82          83          84          85          86          87          88          89          90
 IAtWgt=           1           1           1           1           1           1           1           1           1           1
 AtmWgt=   1.0078250   1.0078250   1.0078250   1.0078250   1.0078250   1.0078250   1.0078250   1.0078250   1.0078250   1.0078250
 NucSpn=           1           1           1           1           1           1           1           1           1           1
 AtZEff=  -0.0000000  -0.0000000  -0.0000000  -0.0000000  -0.0000000  -0.0000000  -0.0000000  -0.0000000  -0.0000000  -0.0000000
 NQMom=    0.0000000   0.0000000   0.0000000   0.0000000   0.0000000   0.0000000   0.0000000   0.0000000   0.0000000   0.0000000
 NMagM=    2.7928460   2.7928460   2.7928460   2.7928460   2.7928460   2.7928460   2.7928460   2.7928460   2.7928460   2.7928460
 AtZNuc=   1.0000000   1.0000000   1.0000000   1.0000000   1.0000000   1.0000000   1.0000000   1.0000000   1.0000000   1.0000000

  Atom        91          92          93          94          95          96          97          98          99         100
 IAtWgt=           1           1           1           1           1           1           1           1           1           1
 AtmWgt=   1.0078250   1.0078250   1.0078250   1.0078250   1.0078250   1.0078250   1.0078250   1.0078250   1.0078250   1.0078250
 NucSpn=           1           1           1           1           1           1           1           1           1           1
 AtZEff=  -0.0000000  -0.0000000  -0.0000000  -0.0000000  -0.0000000  -0.0000000  -0.0000000  -0.0000000  -0.0000000  -0.0000000
 NQMom=    0.0000000   0.0000000   0.0000000   0.0000000   0.0000000   0.0000000   0.0000000   0.0000000   0.0000000   0.0000000
 NMagM=    2.7928460   2.7928460   2.7928460   2.7928460   2.7928460   2.7928460   2.7928460   2.7928460   2.7928460   2.7928460
 AtZNuc=   1.0000000   1.0000000   1.0000000   1.0000000   1.0000000   1.0000000   1.0000000   1.0000000   1.0000000   1.0000000

  Atom       101         102         103         104         105         106         107         108         109         110
 IAtWgt=           1           1           1           1           1           1           1           1           1           1
 AtmWgt=   1.0078250   1.0078250   1.0078250   1.0078250   1.0078250   1.0078250   1.0078250   1.0078250   1.0078250   1.0078250
 NucSpn=           1           1           1           1           1           1           1           1           1           1
 AtZEff=  -0.0000000  -0.0000000  -0.0000000  -0.0000000  -0.0000000  -0.0000000  -0.0000000  -0.0000000  -0.0000000  -0.0000000
 NQMom=    0.0000000   0.0000000   0.0000000   0.0000000   0.0000000   0.0000000   0.0000000   0.0000000   0.0000000   0.0000000
 NMagM=    2.7928460   2.7928460   2.7928460   2.7928460   2.7928460   2.7928460   2.7928460   2.7928460   2.7928460   2.7928460
 AtZNuc=   1.0000000   1.0000000   1.0000000   1.0000000   1.0000000   1.0000000   1.0000000   1.0000000   1.0000000   1.0000000

  Atom       111         112         113         114         115         116         117         118         119         120
 IAtWgt=           1           1           1           1           1           1           1           1           1           1
 AtmWgt=   1.0078250   1.0078250   1.0078250   1.0078250   1.0078250   1.0078250   1.0078250   1.0078250   1.0078250   1.0078250
 NucSpn=           1           1           1           1           1           1           1           1           1           1
 AtZEff=  -0.0000000  -0.0000000  -0.0000000  -0.0000000  -0.0000000  -0.0000000  -0.0000000  -0.0000000  -0.0000000  -0.0000000
 NQMom=    0.0000000   0.0000000   0.0000000   0.0000000   0.0000000   0.0000000   0.0000000   0.0000000   0.0000000   0.0000000
 NMagM=    2.7928460   2.7928460   2.7928460   2.7928460   2.7928460   2.7928460   2.7928460   2.7928460   2.7928460   2.7928460
 AtZNuc=   1.0000000   1.0000000   1.0000000   1.0000000   1.0000000   1.0000000   1.0000000   1.0000000   1.0000000   1.0000000

  Atom       121         122         123         124         125         126         127         128         129         130
 IAtWgt=           1           1           1           1           1           1           1           1           1           1
 AtmWgt=   1.0078250   1.0078250   1.0078250   1.0078250   1.0078250   1.0078250   1.0078250   1.0078250   1.0078250   1.0078250
 NucSpn=           1           1           1           1           1           1           1           1           1           1
 AtZEff=  -0.0000000  -0.0000000  -0.0000000  -0.0000000  -0.0000000  -0.0000000  -0.0000000  -0.0000000  -0.0000000  -0.0000000
 NQMom=    0.0000000   0.0000000   0.0000000   0.0000000   0.0000000   0.0000000   0.0000000   0.0000000   0.0000000   0.0000000
 NMagM=    2.7928460   2.7928460   2.7928460   2.7928460   2.7928460   2.7928460   2.7928460   2.7928460   2.7928460   2.7928460
 AtZNuc=   1.0000000   1.0000000   1.0000000   1.0000000   1.0000000   1.0000000   1.0000000   1.0000000   1.0000000   1.0000000

  Atom       131         132         133         134         135         136         137         138         139         140
 IAtWgt=           1           1           1           1           1           1           1           1           1           1
 AtmWgt=   1.0078250   1.0078250   1.0078250   1.0078250   1.0078250   1.0078250   1.0078250   1.0078250   1.0078250   1.0078250
 NucSpn=           1           1           1           1           1           1           1           1           1           1
 AtZEff=  -0.0000000  -0.0000000  -0.0000000  -0.0000000  -0.0000000  -0.0000000  -0.0000000  -0.0000000  -0.0000000  -0.0000000
 NQMom=    0.0000000   0.0000000   0.0000000   0.0000000   0.0000000   0.0000000   0.0000000   0.0000000   0.0000000   0.0000000
 NMagM=    2.7928460   2.7928460   2.7928460   2.7928460   2.7928460   2.7928460   2.7928460   2.7928460   2.7928460   2.7928460
 AtZNuc=   1.0000000   1.0000000   1.0000000   1.0000000   1.0000000   1.0000000   1.0000000   1.0000000   1.0000000   1.0000000

  Atom       141         142         143         144         145         146         147         148         149         150
 IAtWgt=           1           1           1           1           1           1           1           1           1           1
 AtmWgt=   1.0078250   1.0078250   1.0078250   1.0078250   1.0078250   1.0078250   1.0078250   1.0078250   1.0078250   1.0078250
 NucSpn=           1           1           1           1           1           1           1           1           1           1
 AtZEff=  -0.0000000  -0.0000000  -0.0000000  -0.0000000  -0.0000000  -0.0000000  -0.0000000  -0.0000000  -0.0000000  -0.0000000
 NQMom=    0.0000000   0.0000000   0.0000000   0.0000000   0.0000000   0.0000000   0.0000000   0.0000000   0.0000000   0.0000000
 NMagM=    2.7928460   2.7928460   2.7928460   2.7928460   2.7928460   2.7928460   2.7928460   2.7928460   2.7928460   2.7928460
 AtZNuc=   1.0000000   1.0000000   1.0000000   1.0000000   1.0000000   1.0000000   1.0000000   1.0000000   1.0000000   1.0000000

  Atom       151         152         153         154         155         156         157         158         159         160
 IAtWgt=           1           1           1           1           1           1           1           1           1           1
 AtmWgt=   1.0078250   1.0078250   1.0078250   1.0078250   1.0078250   1.0078250   1.0078250   1.0078250   1.0078250   1.0078250
 NucSpn=           1           1           1           1           1           1           1           1           1           1
 AtZEff=  -0.0000000  -0.0000000  -0.0000000  -0.0000000  -0.0000000  -0.0000000  -0.0000000  -0.0000000  -0.0000000  -0.0000000
 NQMom=    0.0000000   0.0000000   0.0000000   0.0000000   0.0000000   0.0000000   0.0000000   0.0000000   0.0000000   0.0000000
 NMagM=    2.7928460   2.7928460   2.7928460   2.7928460   2.7928460   2.7928460   2.7928460   2.7928460   2.7928460   2.7928460
 AtZNuc=   1.0000000   1.0000000   1.0000000   1.0000000   1.0000000   1.0000000   1.0000000   1.0000000   1.0000000   1.0000000

  Atom       161         162
 IAtWgt=           1           1
 AtmWgt=   1.0078250   1.0078250
 NucSpn=           1           1
 AtZEff=  -0.0000000  -0.0000000
 NQMom=    0.0000000   0.0000000
 NMagM=    2.7928460   2.7928460
 AtZNuc=   1.0000000   1.0000000
 Leave Link  101 at Thu Nov  6 22:43:32 2025, MaxMem= 30870077440 cpu:               5.4 elap:               0.1
 (Enter /public/software/gauss/g16/l202.exe)
 Stoichiometry    C68H83BF2N4O4(1-,2)
 Framework group  C1[X(C68H83BF2N4O4)]
 Deg. of freedom   480
 Full point group                 C1      NOp   1
 Largest Abelian subgroup         C1      NOp   1
 Largest concise Abelian subgroup C1      NOp   1
                         Standard orientation:                         
 ---------------------------------------------------------------------
 Center     Atomic      Atomic             Coordinates (Angstroms)
 Number     Number       Type             X           Y           Z
 ---------------------------------------------------------------------
      1          5           0       -0.701641    1.539357    0.032115
      2          7           0        0.485288    2.522534   -0.135033
      3          6           0        1.826075    2.156765   -0.352266
      4          6           0        2.176768    0.799570   -0.468786
      5          6           0        1.191717   -0.207382   -0.416637
      6          7           0       -0.161724    0.117692   -0.273565
      7          6           0        1.303011   -1.628152   -0.479913
      8          6           0       -0.002796   -2.138557   -0.377992
      9          6           0       -0.900197   -1.026232   -0.244342
     10          6           0        0.397371    3.861592   -0.074977
     11          6           0        1.695141    4.417980   -0.263296
     12          6           0        2.599499    3.349616   -0.441548
     13          6           0       -0.877685    4.597291    0.148528
     14          6           0        4.064910    3.526303   -0.687325
     15          9           0       -1.198228    1.600229    1.341195
     16          9           0       -1.723586    1.881960   -0.866382
     17          6           0        2.521456   -2.483845   -0.628908
     18          6           0       -2.334496   -0.994356   -0.124482
     19          6           0        3.609864    0.429394   -0.658839
     20          6           0        4.110444    0.132359   -1.936984
     21          6           0        5.447339   -0.200760   -2.116408
     22          6           0        6.315739   -0.254132   -1.014609
     23          6           0        5.829290    0.035129    0.266579
     24          6           0        4.485265    0.379381    0.430673
     25          8           0        7.610601   -0.595229   -1.293123
     26          6           0        8.553149   -0.671569   -0.206299
     27          6           0        9.903004   -1.052573   -0.792056
     28          6           0       10.988365   -1.165044    0.284806
     29          6           0       12.362841   -1.531285   -0.286826
     30          6           0       13.454954   -1.650416    0.782199
     31          6           0       14.833070   -2.003815    0.210955
     32          6           0       15.926243   -2.127156    1.278764
     33          6           0       17.306157   -2.471361    0.706170
     34          6           0       18.399186   -2.598351    1.773713
     35          6           0       19.780079   -2.936799    1.200573
     36          6           0       20.872908   -3.067048    2.267801
     37          6           0       22.248064   -3.402617    1.685909
     38          6           0        1.985750    5.798341   -0.270675
     39          6           0        2.238938    6.994762   -0.279997
     40          6           0        2.534793    8.378182   -0.294475
     41          6           0        3.875694    8.837781   -0.379239
     42          6           0        4.171290   10.186406   -0.397434
     43          6           0        3.128565   11.143237   -0.333089
     44          6           0        1.785678   10.700809   -0.246801
     45          6           0        1.501385    9.349644   -0.227285
     46          7           0        3.421130   12.503272   -0.355876
     47          8           0        2.462300   13.371777   -0.312372
     48          8           0        4.651797   12.896885   -0.424023
     49          6           0       -0.349708   -3.507350   -0.444708
     50          6           0       -0.608859   -4.698021   -0.515759
     51          6           0       -0.949926   -6.076000   -0.596266
     52          6           0       -2.297474   -6.494758   -0.605423
     53          6           0       -2.637398   -7.836280   -0.688326
     54          6           0       -1.643824   -8.845694   -0.756175
     55          6           0       -0.291422   -8.419818   -0.763235
     56          6           0        0.041142   -7.076073   -0.680650
     57          7           0       -1.980649  -10.190816   -0.791699
     58          6           0       -0.957919  -11.154125   -1.195230
     59          6           0       -3.357574  -10.554786   -1.121821
     60          6           0       -3.117616   -2.065743    0.164765
     61          6           0       -4.568859   -2.076202    0.279650
     62          6           0       -5.211851   -3.288938    0.614950
     63          6           0       -6.589795   -3.370094    0.738131
     64          6           0       -7.382021   -2.229840    0.528031
     65          6           0       -6.768653   -1.011175    0.193856
     66          6           0       -5.384433   -0.945485    0.074050
     67          8           0       -8.727427   -2.403961    0.670597
     68          6           0       -9.601486   -1.275980    0.464294
     69          6           0      -11.027304   -1.753178    0.685830
     70          6           0      -12.049839   -0.628424    0.486923
     71          6           0      -13.495238   -1.089530    0.706943
     72          6           0      -14.528085    0.025299    0.506642
     73          6           0      -15.973805   -0.435704    0.725547
     74          6           0      -17.009826    0.676150    0.523213
     75          6           0      -18.455156    0.213593    0.741598
     76          6           0      -19.492513    1.323989    0.537986
     77          6           0      -20.937449    0.860765    0.756171
     78          6           0      -21.975723    1.970103    0.552132
     79          6           0      -23.414767    1.497796    0.772178
     80          1           0       -1.549285    4.482049   -0.708395
     81          1           0       -1.402071    4.208110    1.026301
     82          1           0       -0.676144    5.659549    0.294914
     83          1           0        4.281733    4.583175   -0.863288
     84          1           0        4.666532    3.199661    0.167524
     85          1           0        4.407711    2.956010   -1.554866
     86          1           0        3.300973   -2.213059    0.087759
     87          1           0        2.255473   -3.531796   -0.470526
     88          1           0        2.961072   -2.397322   -1.627843
     89          1           0       -2.790287   -0.023258   -0.281514
     90          1           0        3.448005    0.167798   -2.796417
     91          1           0        5.838102   -0.424759   -3.103848
     92          1           0        6.478090   -0.000851    1.132786
     93          1           0        4.116918    0.606363    1.426546
     94          1           0        8.606305    0.299773    0.301145
     95          1           0        8.213365   -1.420303    0.520440
     96          1           0        9.803229   -2.007073   -1.323710
     97          1           0       10.191520   -0.299538   -1.535991
     98          1           0       11.063299   -0.212736    0.827543
     99          1           0       10.689596   -1.919067    1.025891
    100          1           0       12.285796   -2.480740   -0.835019
    101          1           0       12.659615   -0.774364   -1.026361
    102          1           0       13.524540   -0.703346    1.335981
    103          1           0       13.160513   -2.412631    1.517578
    104          1           0       14.762891   -2.948804   -0.346413
    105          1           0       15.127526   -1.239246   -0.522064
    106          1           0       15.992257   -1.184170    1.840064
    107          1           0       15.634598   -2.895924    2.008543
    108          1           0       17.239844   -3.412695    0.142123
    109          1           0       17.598417   -1.700707   -0.021380
    110          1           0       18.463019   -1.658355    2.340310
    111          1           0       18.108743   -3.371738    2.499124
    112          1           0       19.717375   -3.875815    0.632012
    113          1           0       20.072735   -2.162280    0.477101
    114          1           0       20.935662   -2.129512    2.836906
    115          1           0       20.582211   -3.842525    2.989546
    116          1           0       23.006136   -3.490386    2.471763
    117          1           0       22.226109   -4.352279    1.138491
    118          1           0       22.582934   -2.627154    0.986973
    119          1           0        4.680867    8.111439   -0.430814
    120          1           0        5.196913   10.526201   -0.461599
    121          1           0        0.990391   11.433090   -0.196256
    122          1           0        0.469372    9.019487   -0.160983
    123          1           0       -3.086980   -5.750531   -0.556812
    124          1           0       -3.687026   -8.100384   -0.700785
    125          1           0        0.510298   -9.143747   -0.834173
    126          1           0        1.088005   -6.788320   -0.686836
    127          1           0       -0.587900  -10.979448   -2.216083
    128          1           0       -0.104358  -11.129558   -0.513050
    129          1           0       -1.383368  -12.157005   -1.150095
    130          1           0       -4.058613  -10.146138   -0.389475
    131          1           0       -3.661647  -10.207983   -2.120218
    132          1           0       -3.450095  -11.640689   -1.091837
    133          1           0       -2.642495   -3.025555    0.342561
    134          1           0       -4.608725   -4.177556    0.781792
    135          1           0       -7.075551   -4.305843    0.995564
    136          1           0       -7.360018   -0.119427    0.026893
    137          1           0       -4.934946    0.007954   -0.185006
    138          1           0       -9.339292   -0.477474    1.169301
    139          1           0       -9.467755   -0.893165   -0.555045
    140          1           0      -11.237599   -2.576436   -0.008202
    141          1           0      -11.111652   -2.159876    1.701278
    142          1           0      -11.822598    0.197088    1.175322
    143          1           0      -11.949123   -0.219796   -0.527908
    144          1           0      -13.718389   -1.918675    0.020895
    145          1           0      -13.593873   -1.497963    1.722501
    146          1           0      -14.304013    0.854665    1.192490
    147          1           0      -14.427630    0.433860   -0.508952
    148          1           0      -16.196170   -1.266648    0.040930
    149          1           0      -16.073879   -0.843429    1.741585
    150          1           0      -16.787991    1.507160    1.207938
    151          1           0      -16.909602    1.083934   -0.492811
    152          1           0      -18.676223   -0.618189    0.057533
    153          1           0      -18.555368   -0.193557    1.757888
    154          1           0      -19.271794    2.155844    1.222095
    155          1           0      -19.392394    1.731117   -0.478342
    156          1           0      -21.159297    0.028779    0.072396
    157          1           0      -21.039010    0.454162    1.772687
    158          1           0      -21.755268    2.801415    1.235586
    159          1           0      -21.875493    2.376229   -0.463643
    160          1           0      -24.132307    2.311279    0.619476
    161          1           0      -23.677131    0.689457    0.079534
    162          1           0      -23.555944    1.117591    1.790763
 ---------------------------------------------------------------------
 Rotational constants (GHZ):           0.0169896           0.0048915           0.0038399
 Leave Link  202 at Thu Nov  6 22:43:32 2025, MaxMem= 30870077440 cpu:               0.3 elap:               0.0
 (Enter /public/software/gauss/g16/l301.exe)
 Standard basis: def2TZVPP (5D, 7F)
 Ernie: Thresh=  0.10000D-02 Tol=  0.10000D-05 Strict=F.
 There are  4089 symmetry adapted cartesian basis functions of A   symmetry.
 There are  3611 symmetry adapted basis functions of A   symmetry.
  3611 basis functions,  5440 primitive gaussians,  4089 cartesian basis functions
   288 alpha electrons      287 beta electrons
       nuclear repulsion energy     10478.2023192646 Hartrees.
 IExCor= 4336 DFT=T Ex+Corr=M062X ExCW=0 ScaHFX=  0.540000
 ScaDFX=  1.000000  1.000000  1.000000  1.000000 ScalE2=  1.000000  1.000000
 IRadAn=      5 IRanWt=     -1 IRanGd=            0 ICorTp=0 IEmpDi=131
 NAtoms=  162 NActive=  162 NUniq=  162 SFac= 1.00D+00 NAtFMM=   60 NAOKFM=T Big=T
 Integral buffers will be    131072 words long.
 Raffenetti 2 integral format.
 Two-electron integral symmetry is turned on.
 R6Disp:  Grimme-D3 Dispersion energy=       -0.0112099664 Hartrees.
 Nuclear repulsion after empirical dispersion term =    10478.1911092981 Hartrees.
 ------------------------------------------------------------------------------
 Polarizable Continuum Model (PCM)
 =================================
 Model                : PCM.
 Atomic radii         : UFF (Universal Force Field).
 Polarization charges : Total charges.
 Charge compensation  : None.
 Solution method      : On-the-fly selection.
 Cavity type          : Scaled VdW (van der Waals Surface) (Alpha=1.100).
 Cavity algorithm     : GePol (No added spheres)
                        Default sphere list used, NSphG=  162.
                        Lebedev-Laikov grids with approx.  5.0 points / Ang**2.
                        Smoothing algorithm: York/Karplus (Gamma=1.0000).
                        Polarization charges: spherical gaussians, with
                                              point-specific exponents (IZeta= 3).
                        Self-potential: point-specific (ISelfS= 7).
                        Self-field    : sphere-specific E.n sum rule (ISelfD= 2).
 Solvent              : Water, Eps=  78.355300 Eps(inf)=   1.777849
 ------------------------------------------------------------------------------
 GePol: Number of generator spheres                  =     162
 GePol: Total number of spheres                      =     162
 GePol: Number of exposed spheres                    =     162 (100.00%)
 GePol: Number of points                             =   11200
 GePol: Average weight of points                     =       0.13
 GePol: Minimum weight of points                     =   0.16D-10
 GePol: Maximum weight of points                     =    0.20577
 GePol: Number of points with low weight             =     723
 GePol: Fraction of low-weight points (<1% of avg)   =       6.46%
 GePol: Cavity surface area                          =   1424.306 Ang**2
 GePol: Cavity volume                                =   1592.940 Ang**3
 Leave Link  301 at Thu Nov  6 22:43:32 2025, MaxMem= 30870077440 cpu:               5.5 elap:               0.1
 (Enter /public/software/gauss/g16/l302.exe)
 NPDir=0 NMtPBC=     1 NCelOv=     1 NCel=       1 NClECP=     1 NCelD=      1
         NCelK=      1 NCelE2=     1 NClLst=     1 CellRange=     0.0.
 One-electron integrals computed using PRISM.
 One-electron integral symmetry used in STVInt
   1 Symmetry operations used in ECPInt.
 ECPInt:  NShTT=  935028 NPrTT= 2520877 LenC2=  293770 LenP2D=  537889.
 LDataN:  DoStor=T MaxTD1= 6 Len=  172
 Number of processors reduced to  49 by ecpmxn.
 NBasis=  3611 RedAO= T EigKep=  3.38D-06  NBF=  3611
 NBsUse=  3611 1.00D-06 EigRej= -1.00D+00 NBFU=  3611
 Precomputing XC quadrature grid using
 IXCGrd= 4 IRadAn=           5 IRanWt=          -1 IRanGd=           0 AccXCQ= 0.00D+00.
 Generated NRdTot=       0 NPtTot=           0 NUsed=           0 NTot=          32
 NSgBfM=  2322  2322  2322  2322  2322 MxSgAt=   162 MxSgA2=   148.
 Leave Link  302 at Thu Nov  6 22:44:31 2025, MaxMem= 30870077440 cpu:            3778.0 elap:              59.3
 (Enter /public/software/gauss/g16/l303.exe)
 DipDrv:  MaxL=1.
 Leave Link  303 at Thu Nov  6 22:44:32 2025, MaxMem= 30870077440 cpu:              84.5 elap:               1.4
 (Enter /public/software/gauss/g16/l401.exe)
 ExpMin= 6.06D-02 ExpMax= 3.55D+04 ExpMxC= 1.21D+03 IAcc=3 IRadAn=         5 AccDes= 0.00D+00
 Harris functional with IExCor= 1009 and IRadAn=       5 diagonalized for initial guess.
 HarFok:  IExCor= 1009 AccDes= 0.00D+00 IRadAn=         5 IDoV= 1 UseB2=F ITyADJ=14
 ICtDFT=  3500011 ScaDFX=  1.000000  1.000000  1.000000  1.000000
 FoFCou: FMM=F IPFlag=           0 FMFlag=      100000 FMFlg1=        2001
         NFxFlg=           0 DoJE=T BraDBF=F KetDBF=T FulRan=T
         wScrn=  0.000000 ICntrl=       500 IOpCl=  0 I1Cent=   200000004 NGrid=           0
         NMat0=    1 NMatS0=      1 NMatT0=    0 NMatD0=    1 NMtDS0=    0 NMtDT0=    0
 Petite list used in FoFCou.
 Harris En= -3384.44774941851    
 JPrj=0 DoOrth=F DoCkMO=F.
 Initial guess <Sx>= 0.0000 <Sy>= 0.0000 <Sz>= 0.5000 <S**2>= 0.7500 S= 0.5000
 Leave Link  401 at Thu Nov  6 22:45:12 2025, MaxMem= 30870077440 cpu:            2492.5 elap:              39.1
 (Enter /public/software/gauss/g16/l502.exe)
 Integral symmetry usage will be decided dynamically.
 UHF open shell SCF:
 Using DIIS extrapolation, IDIIS=  1040.
 NGot= 30870077440 LenX= 30836341196 LenY= 30819617186
 Requested convergence on RMS density matrix=1.00D-08 within 128 cycles.
 Requested convergence on MAX density matrix=1.00D-06.
 Requested convergence on             energy=1.00D-06.
 No special actions if energy rises.
 Fock matrices will be formed incrementally for  20 cycles.

 Cycle   1  Pass 1  IDiag  1:
 FoFJK:  IHMeth= 1 ICntrl=       0 DoSepK=F KAlg= 0 I1Cent=           0 FoldK=F
 IRaf= 280000000 NMat=       1 IRICut=       1 DoRegI=T DoRafI=F ISym2E= 0 IDoP0=0 IntGTp=1.
 FoFCou: FMM=T IPFlag=           0 FMFlag=      100000 FMFlg1=        2001
         NFxFlg=           0 DoJE=F BraDBF=F KetDBF=F FulRan=T
         wScrn=  0.000000 ICntrl=         0 IOpCl=  1 I1Cent=           0 NGrid=           0
         NMat0=    1 NMatS0=      1 NMatT0=    0 NMatD0=    1 NMtDS0=    0 NMtDT0=    0
 Symmetry not used in FoFCou.
 FMM levels:  10  Number of levels for PrismC:   9
 Inv3:  Mode=1 IEnd=   376320000.
 Iteration    1 A*A^-1 deviation from unit magnitude is 2.04D-14 for    165.
 Iteration    1 A*A^-1 deviation from orthogonality  is 9.88D-15 for  11179   5608.
 Iteration    1 A^-1*A deviation from unit magnitude is 2.07D-14 for    165.
 Iteration    1 A^-1*A deviation from orthogonality  is 2.56D-14 for   9869   9852.
 E= -3383.38384605155    
 DIIS: error= 3.45D-02 at cycle   1 NSaved=   1.
 NSaved= 1 IEnMin= 1 EnMin= -3383.38384605155     IErMin= 1 ErrMin= 3.45D-02
 ErrMax= 3.45D-02  0.00D+00 EMaxC= 1.00D-01 BMatC= 1.08D+01 BMatP= 1.08D+01
 IDIUse=3 WtCom= 6.55D-01 WtEn= 3.45D-01
 Coeff-Com:  0.100D+01
 Coeff-En:   0.100D+01
 Coeff:      0.100D+01
 Gap=     0.012 Goal=   None    Shift=    0.000
 Gap=     0.155 Goal=   None    Shift=    0.000
 GapD=    0.012 DampG=0.250 DampE=0.500 DampFc=0.2500 IDamp=-1.
 Damping current iteration by 2.50D-01
 RMSDP=1.00D-03 MaxDP=2.00D-01              OVMax= 8.53D-01

 Cycle   2  Pass 1  IDiag  1:
 RMSU=  2.47D-04    CP:  9.85D-01
 E= -3384.17249102613     Delta-E=       -0.788644974577 Rises=F Damp=T
 DIIS: error= 1.96D-02 at cycle   2 NSaved=   2.
 NSaved= 2 IEnMin= 2 EnMin= -3384.17249102613     IErMin= 2 ErrMin= 1.96D-02
 ErrMax= 1.96D-02  0.00D+00 EMaxC= 1.00D-01 BMatC= 3.83D+00 BMatP= 1.08D+01
 IDIUse=3 WtCom= 8.04D-01 WtEn= 1.96D-01
 Coeff-Com: -0.119D+01 0.219D+01
 Coeff-En:   0.000D+00 0.100D+01
 Coeff:     -0.959D+00 0.196D+01
 Gap=    -0.020 Goal=   None    Shift=    0.000
 Gap=     0.203 Goal=   None    Shift=    0.000
 RMSDP=6.27D-04 MaxDP=1.53D-01 DE=-7.89D-01 OVMax= 8.93D-01

 Cycle   3  Pass 1  IDiag  1:
 RMSU=  4.60D-04    CP:  9.59D-01  2.70D+00
 E= -3385.57832937409     Delta-E=       -1.405838347966 Rises=F Damp=F
 DIIS: error= 2.01D-02 at cycle   3 NSaved=   3.
 NSaved= 3 IEnMin= 3 EnMin= -3385.57832937409     IErMin= 2 ErrMin= 1.96D-02
 ErrMax= 2.01D-02  0.00D+00 EMaxC= 1.00D-01 BMatC= 4.86D-01 BMatP= 3.83D+00
 IDIUse=3 WtCom= 7.99D-01 WtEn= 2.01D-01
 Coeff-Com: -0.510D+00 0.912D+00 0.598D+00
 Coeff-En:   0.000D+00 0.000D+00 0.100D+01
 Coeff:     -0.407D+00 0.729D+00 0.679D+00
 Gap=     0.009 Goal=   None    Shift=    0.000
 Gap=     0.156 Goal=   None    Shift=    0.000
 RMSDP=2.43D-04 MaxDP=1.12D-01 DE=-1.41D+00 OVMax= 6.40D-01

 Cycle   4  Pass 1  IDiag  1:
 RMSU=  2.17D-04    CP:  9.50D-01  2.57D+00  7.81D-01
 E= -3385.62471882469     Delta-E=       -0.046389450594 Rises=F Damp=F
 DIIS: error= 1.71D-02 at cycle   4 NSaved=   4.
 NSaved= 4 IEnMin= 4 EnMin= -3385.62471882469     IErMin= 4 ErrMin= 1.71D-02
 ErrMax= 1.71D-02  0.00D+00 EMaxC= 1.00D-01 BMatC= 2.90D-01 BMatP= 4.86D-01
 IDIUse=3 WtCom= 8.29D-01 WtEn= 1.71D-01
 Coeff-Com: -0.528D-01 0.106D+00 0.430D+00 0.517D+00
 Coeff-En:   0.000D+00 0.000D+00 0.384D+00 0.616D+00
 Coeff:     -0.438D-01 0.879D-01 0.422D+00 0.534D+00
 Gap=     0.029 Goal=   None    Shift=    0.000
 Gap=     0.163 Goal=   None    Shift=    0.000
 RMSDP=1.12D-04 MaxDP=5.55D-02 DE=-4.64D-02 OVMax= 3.34D-01

 Cycle   5  Pass 1  IDiag  1:
 RMSU=  6.43D-05    CP:  9.54D-01  2.58D+00  8.82D-01  6.36D-01
 E= -3385.68662559842     Delta-E=       -0.061906773730 Rises=F Damp=F
 DIIS: error= 9.95D-04 at cycle   5 NSaved=   5.
 NSaved= 5 IEnMin= 5 EnMin= -3385.68662559842     IErMin= 5 ErrMin= 9.95D-04
 ErrMax= 9.95D-04  0.00D+00 EMaxC= 1.00D-01 BMatC= 8.19D-03 BMatP= 2.90D-01
 IDIUse=3 WtCom= 9.90D-01 WtEn= 9.95D-03
 Coeff-Com:  0.781D-02-0.903D-02 0.145D+00 0.229D+00 0.627D+00
 Coeff-En:   0.000D+00 0.000D+00 0.000D+00 0.000D+00 0.100D+01
 Coeff:      0.774D-02-0.894D-02 0.143D+00 0.227D+00 0.631D+00
 Gap=     0.041 Goal=   None    Shift=    0.000
 Gap=     0.148 Goal=   None    Shift=    0.000
 RMSDP=3.81D-05 MaxDP=1.05D-02 DE=-6.19D-02 OVMax= 1.14D-01

 Cycle   6  Pass 1  IDiag  1:
 RMSU=  2.73D-05    CP:  9.53D-01  2.59D+00  8.51D-01  7.21D-01  8.24D-01
 E= -3385.68926582933     Delta-E=       -0.002640230916 Rises=F Damp=F
 DIIS: error= 1.31D-03 at cycle   6 NSaved=   6.
 NSaved= 6 IEnMin= 6 EnMin= -3385.68926582933     IErMin= 5 ErrMin= 9.95D-04
 ErrMax= 1.31D-03  0.00D+00 EMaxC= 1.00D-01 BMatC= 3.19D-03 BMatP= 8.19D-03
 IDIUse=3 WtCom= 9.90D-01 WtEn= 9.95D-03
 Coeff-Com:  0.683D-02-0.113D-01 0.136D-01 0.250D-01 0.385D+00 0.581D+00
 Coeff-En:   0.000D+00 0.000D+00 0.000D+00 0.000D+00 0.175D-01 0.982D+00
 Coeff:      0.677D-02-0.111D-01 0.134D-01 0.248D-01 0.382D+00 0.585D+00
 Gap=     0.047 Goal=   None    Shift=    0.000
 Gap=     0.149 Goal=   None    Shift=    0.000
 RMSDP=1.86D-05 MaxDP=6.99D-03 DE=-2.64D-03 OVMax= 3.12D-02

 Cycle   7  Pass 1  IDiag  1:
 RMSU=  1.70D-05    CP:  9.53D-01  2.60D+00  8.59D-01  7.10D-01  9.11D-01
                    CP:  1.07D+00
 E= -3385.69061576747     Delta-E=       -0.001349938142 Rises=F Damp=F
 DIIS: error= 7.19D-04 at cycle   7 NSaved=   7.
 NSaved= 7 IEnMin= 7 EnMin= -3385.69061576747     IErMin= 7 ErrMin= 7.19D-04
 ErrMax= 7.19D-04  0.00D+00 EMaxC= 1.00D-01 BMatC= 6.67D-04 BMatP= 3.19D-03
 IDIUse=3 WtCom= 9.93D-01 WtEn= 7.19D-03
 Coeff-Com:  0.246D-02-0.388D-02-0.276D-02-0.194D-01 0.166D+00 0.185D+00
 Coeff-Com:  0.673D+00
 Coeff-En:   0.000D+00 0.000D+00 0.000D+00 0.000D+00 0.000D+00 0.000D+00
 Coeff-En:   0.100D+01
 Coeff:      0.245D-02-0.385D-02-0.274D-02-0.193D-01 0.164D+00 0.183D+00
 Coeff:      0.676D+00
 Gap=     0.049 Goal=   None    Shift=    0.000
 Gap=     0.150 Goal=   None    Shift=    0.000
 RMSDP=1.55D-05 MaxDP=4.55D-03 DE=-1.35D-03 OVMax= 5.58D-02

 Cycle   8  Pass 1  IDiag  1:
 RMSU=  7.70D-06    CP:  9.53D-01  2.61D+00  8.55D-01  7.31D-01  9.12D-01
                    CP:  1.25D+00  1.68D+00
 E= -3385.69145881603     Delta-E=       -0.000843048554 Rises=F Damp=F
 DIIS: error= 8.49D-04 at cycle   8 NSaved=   8.
 NSaved= 8 IEnMin= 8 EnMin= -3385.69145881603     IErMin= 7 ErrMin= 7.19D-04
 ErrMax= 8.49D-04  0.00D+00 EMaxC= 1.00D-01 BMatC= 8.74D-04 BMatP= 6.67D-04
 IDIUse=3 WtCom= 9.93D-01 WtEn= 7.19D-03
 Coeff-Com:  0.278D-02-0.386D-02 0.489D-02-0.157D-01 0.125D+00-0.167D-01
 Coeff-Com:  0.350D+00 0.553D+00
 Coeff-En:   0.000D+00 0.000D+00 0.000D+00 0.000D+00 0.000D+00 0.000D+00
 Coeff-En:   0.000D+00 0.100D+01
 Coeff:      0.276D-02-0.383D-02 0.485D-02-0.156D-01 0.124D+00-0.166D-01
 Coeff:      0.348D+00 0.557D+00
 Gap=     0.051 Goal=   None    Shift=    0.000
 Gap=     0.149 Goal=   None    Shift=    0.000
 RMSDP=1.47D-05 MaxDP=4.46D-03 DE=-8.43D-04 OVMax= 5.38D-02

 Cycle   9  Pass 1  IDiag  1:
 RMSU=  3.95D-06    CP:  9.53D-01  2.61D+00  8.53D-01  7.42D-01  8.97D-01
                    CP:  1.36D+00  2.39D+00  1.80D+00
 E= -3385.69229614050     Delta-E=       -0.000837324475 Rises=F Damp=F
 DIIS: error= 1.05D-03 at cycle   9 NSaved=   9.
 NSaved= 9 IEnMin= 9 EnMin= -3385.69229614050     IErMin= 7 ErrMin= 7.19D-04
 ErrMax= 1.05D-03  0.00D+00 EMaxC= 1.00D-01 BMatC= 1.16D-03 BMatP= 6.67D-04
 IDIUse=3 WtCom= 9.93D-01 WtEn= 7.19D-03
 Coeff-Com:  0.734D-03-0.932D-03-0.220D-02-0.223D-01 0.759D-01-0.335D-01
 Coeff-Com:  0.566D+00 0.143D+01-0.101D+01
 Coeff-En:   0.000D+00 0.000D+00 0.000D+00 0.000D+00 0.000D+00 0.000D+00
 Coeff-En:   0.000D+00 0.000D+00 0.100D+01
 Coeff:      0.729D-03-0.926D-03-0.218D-02-0.221D-01 0.754D-01-0.333D-01
 Coeff:      0.562D+00 0.142D+01-0.100D+01
 Gap=     0.050 Goal=   None    Shift=    0.000
 Gap=     0.150 Goal=   None    Shift=    0.000
 RMSDP=1.92D-05 MaxDP=6.27D-03 DE=-8.37D-04 OVMax= 7.35D-02

 Cycle  10  Pass 1  IDiag  1:
 RMSU=  2.62D-06    CP:  9.53D-01  2.60D+00  8.58D-01  7.24D-01  9.33D-01
                    CP:  1.27D+00  1.56D+00  5.65D-01 -5.42D-01
 E= -3385.69127295501     Delta-E=        0.001023185492 Rises=F Damp=F
 DIIS: error= 8.06D-04 at cycle  10 NSaved=  10.
 NSaved=10 IEnMin= 9 EnMin= -3385.69229614050     IErMin= 7 ErrMin= 7.19D-04
 ErrMax= 8.06D-04  0.00D+00 EMaxC= 1.00D-01 BMatC= 7.08D-04 BMatP= 6.67D-04
 IDIUse=3 WtCom= 9.93D-01 WtEn= 7.19D-03
 Rare condition: small coef for last iteration:  0.000D+00
 Coeff-Com: -0.154D-02 0.283D-02 0.390D-02-0.385D-02-0.614D-01-0.305D+00
 Coeff-Com: -0.599D-01 0.220D+01-0.336D+01 0.259D+01
 Coeff-En:   0.000D+00 0.000D+00 0.000D+00 0.000D+00 0.000D+00 0.000D+00
 Coeff-En:   0.000D+00 0.000D+00 0.000D+00 0.100D+01
 Coeff:     -0.154D-02 0.283D-02 0.390D-02-0.385D-02-0.614D-01-0.305D+00
 Coeff:     -0.599D-01 0.220D+01-0.336D+01 0.259D+01
 Gap=     0.052 Goal=   None    Shift=    0.000
 Gap=     0.150 Goal=   None    Shift=    0.000
 RMSDP=3.55D-05 MaxDP=1.21D-02 DE= 1.02D-03 OVMax= 1.32D-01

 Cycle  11  Pass 1  IDiag  1:
 RMSU=  1.06D-05    CP:  9.53D-01  2.59D+00  8.63D-01  6.90D-01  9.86D-01
                    CP:  1.18D+00  2.55D-01 -1.55D+00 -3.00D+00  3.00D+00
 E= -3385.69016577098     Delta-E=        0.001107184029 Rises=F Damp=F
 DIIS: error= 4.08D-04 at cycle  11 NSaved=  11.
 NSaved=11 IEnMin= 9 EnMin= -3385.69229614050     IErMin=11 ErrMin= 4.08D-04
 ErrMax= 4.08D-04  0.00D+00 EMaxC= 1.00D-01 BMatC= 2.27D-04 BMatP= 6.67D-04
 IDIUse=3 WtCom= 9.96D-01 WtEn= 4.08D-03
 Rare condition: small coef for last iteration:  0.000D+00
 Coeff-Com: -0.115D-03 0.617D-03 0.994D-02 0.137D-01-0.429D-01-0.200D+00
 Coeff-Com: -0.417D+00 0.674D+00-0.205D+01 0.196D+01 0.106D+01
 Coeff-En:   0.000D+00 0.000D+00 0.000D+00 0.000D+00 0.000D+00 0.000D+00
 Coeff-En:   0.000D+00 0.000D+00 0.000D+00 0.000D+00 0.100D+01
 Coeff:     -0.115D-03 0.617D-03 0.994D-02 0.137D-01-0.429D-01-0.200D+00
 Coeff:     -0.417D+00 0.674D+00-0.205D+01 0.196D+01 0.106D+01
 Gap=     0.056 Goal=   None    Shift=    0.000
 Gap=     0.147 Goal=   None    Shift=    0.000
 RMSDP=2.55D-05 MaxDP=8.50D-03 DE= 1.11D-03 OVMax= 9.24D-02

 Cycle  12  Pass 1  IDiag  1:
 RMSU=  5.86D-06    CP:  9.53D-01  2.58D+00  8.66D-01  6.65D-01  1.00D+00
                    CP:  1.12D+00 -5.40D-01 -3.00D+00 -3.00D+00  3.00D+00
                    CP:  2.55D+00
 E= -3385.68982841400     Delta-E=        0.000337356985 Rises=F Damp=F
 DIIS: error= 3.24D-04 at cycle  12 NSaved=  12.
 NSaved=12 IEnMin= 9 EnMin= -3385.69229614050     IErMin=12 ErrMin= 3.24D-04
 ErrMax= 3.24D-04  0.00D+00 EMaxC= 1.00D-01 BMatC= 1.02D-04 BMatP= 2.27D-04
 IDIUse=3 WtCom= 9.97D-01 WtEn= 3.24D-03
 Rare condition: small coef for last iteration:  0.000D+00
 Coeff-Com:  0.989D-03-0.129D-02 0.522D-02 0.561D-02 0.150D-01-0.104D-01
 Coeff-Com: -0.103D+00 0.293D-02-0.624D+00 0.444D+00 0.532D+00 0.734D+00
 Coeff-En:   0.000D+00 0.000D+00 0.000D+00 0.000D+00 0.000D+00 0.000D+00
 Coeff-En:   0.000D+00 0.000D+00 0.000D+00 0.000D+00 0.000D+00 0.100D+01
 Coeff:      0.989D-03-0.129D-02 0.522D-02 0.561D-02 0.150D-01-0.104D-01
 Coeff:     -0.103D+00 0.293D-02-0.624D+00 0.444D+00 0.532D+00 0.734D+00
 Gap=     0.057 Goal=   None    Shift=    0.000
 Gap=     0.144 Goal=   None    Shift=    0.000
 RMSDP=1.28D-05 MaxDP=4.23D-03 DE= 3.37D-04 OVMax= 4.98D-02

 Cycle  13  Pass 1  IDiag  1:
 RMSU=  5.66D-06    CP:  9.52D-01  2.57D+00  8.68D-01  6.49D-01  9.94D-01
                    CP:  1.03D+00 -1.01D+00 -3.00D+00 -3.00D+00  3.00D+00
                    CP:  3.00D+00  1.29D+00
 E= -3385.68978070579     Delta-E=        0.000047708203 Rises=F Damp=F
 DIIS: error= 1.88D-04 at cycle  13 NSaved=  13.
 NSaved=13 IEnMin= 9 EnMin= -3385.69229614050     IErMin=13 ErrMin= 1.88D-04
 ErrMax= 1.88D-04  0.00D+00 EMaxC= 1.00D-01 BMatC= 3.09D-05 BMatP= 1.02D-04
 IDIUse=3 WtCom= 9.98D-01 WtEn= 1.88D-03
 Rare condition: small coef for last iteration:  0.000D+00
 Coeff-Com:  0.100D-02-0.143D-02 0.101D-02-0.269D-02 0.251D-01 0.327D-01
 Coeff-Com:  0.961D-01 0.417D-01-0.161D+00-0.452D-01-0.332D-01 0.231D+00
 Coeff-Com:  0.815D+00
 Coeff-En:   0.000D+00 0.000D+00 0.000D+00 0.000D+00 0.000D+00 0.000D+00
 Coeff-En:   0.000D+00 0.000D+00 0.000D+00 0.000D+00 0.000D+00 0.000D+00
 Coeff-En:   0.100D+01
 Coeff:      0.100D-02-0.143D-02 0.101D-02-0.269D-02 0.251D-01 0.327D-01
 Coeff:      0.961D-01 0.417D-01-0.161D+00-0.452D-01-0.332D-01 0.231D+00
 Coeff:      0.815D+00
 Gap=     0.056 Goal=   None    Shift=    0.000
 Gap=     0.143 Goal=   None    Shift=    0.000
 RMSDP=5.02D-06 MaxDP=1.42D-03 DE= 4.77D-05 OVMax= 1.93D-02

 Cycle  14  Pass 1  IDiag  1:
 RMSU=  1.50D-06    CP:  9.52D-01  2.57D+00  8.69D-01  6.41D-01  9.88D-01
                    CP:  9.52D-01 -1.19D+00 -3.00D+00 -3.00D+00  3.00D+00
                    CP:  3.00D+00  1.32D+00  1.39D+00
 E= -3385.68979301410     Delta-E=       -0.000012308303 Rises=F Damp=F
 DIIS: error= 3.82D-05 at cycle  14 NSaved=  14.
 NSaved=14 IEnMin= 9 EnMin= -3385.69229614050     IErMin=14 ErrMin= 3.82D-05
 ErrMax= 3.82D-05  0.00D+00 EMaxC= 1.00D-01 BMatC= 3.89D-06 BMatP= 3.09D-05
 IDIUse=1 WtCom= 1.00D+00 WtEn= 0.00D+00
 Coeff-Com:  0.361D-03-0.522D-03-0.378D-03-0.290D-02 0.378D-02 0.299D-02
 Coeff-Com:  0.587D-01 0.814D-01-0.707D-01 0.354D-01-0.124D+00-0.126D+00
 Coeff-Com:  0.289D+00 0.853D+00
 Coeff:      0.361D-03-0.522D-03-0.378D-03-0.290D-02 0.378D-02 0.299D-02
 Coeff:      0.587D-01 0.814D-01-0.707D-01 0.354D-01-0.124D+00-0.126D+00
 Coeff:      0.289D+00 0.853D+00
 Gap=     0.054 Goal=   None    Shift=    0.000
 Gap=     0.144 Goal=   None    Shift=    0.000
 RMSDP=1.84D-06 MaxDP=5.84D-04 DE=-1.23D-05 OVMax= 3.21D-03

 Cycle  15  Pass 1  IDiag  1:
 RMSU=  1.44D-06    CP:  9.53D-01  2.57D+00  8.69D-01  6.38D-01  9.88D-01
                    CP:  9.32D-01 -1.20D+00 -3.00D+00 -3.00D+00  3.00D+00
                    CP:  3.00D+00  1.30D+00  1.34D+00  1.50D+00
 E= -3385.68979650018     Delta-E=       -0.000003486088 Rises=F Damp=F
 DIIS: error= 1.86D-05 at cycle  15 NSaved=  15.
 NSaved=15 IEnMin= 9 EnMin= -3385.69229614050     IErMin=15 ErrMin= 1.86D-05
 ErrMax= 1.86D-05  0.00D+00 EMaxC= 1.00D-01 BMatC= 1.82D-06 BMatP= 3.89D-06
 IDIUse=1 WtCom= 1.00D+00 WtEn= 0.00D+00
 Coeff-Com: -0.100D-03 0.143D-03-0.342D-03-0.112D-03-0.921D-02-0.119D-01
 Coeff-Com: -0.237D-01-0.100D-01 0.358D-01 0.627D-01-0.937D-02-0.787D-01
 Coeff-Com: -0.183D+00 0.345D+00 0.883D+00
 Coeff:     -0.100D-03 0.143D-03-0.342D-03-0.112D-03-0.921D-02-0.119D-01
 Coeff:     -0.237D-01-0.100D-01 0.358D-01 0.627D-01-0.937D-02-0.787D-01
 Coeff:     -0.183D+00 0.345D+00 0.883D+00
 Gap=     0.054 Goal=   None    Shift=    0.000
 Gap=     0.144 Goal=   None    Shift=    0.000
 RMSDP=2.08D-06 MaxDP=6.39D-04 DE=-3.49D-06 OVMax= 7.53D-03

 Cycle  16  Pass 1  IDiag  1:
 RMSU=  5.42D-07    CP:  9.53D-01  2.57D+00  8.69D-01  6.41D-01  9.90D-01
                    CP:  9.45D-01 -1.14D+00 -3.00D+00 -3.00D+00  3.00D+00
                    CP:  3.00D+00  1.28D+00  1.16D+00  1.72D+00  1.75D+00
 E= -3385.68979639708     Delta-E=        0.000000103104 Rises=F Damp=F
 DIIS: error= 1.87D-05 at cycle  16 NSaved=  16.
 NSaved=16 IEnMin= 9 EnMin= -3385.69229614050     IErMin=15 ErrMin= 1.86D-05
 ErrMax= 1.87D-05  0.00D+00 EMaxC= 1.00D-01 BMatC= 6.96D-07 BMatP= 1.82D-06
 IDIUse=1 WtCom= 1.00D+00 WtEn= 0.00D+00
 Coeff-Com: -0.769D-04 0.112D-03-0.280D-04 0.480D-03-0.416D-02-0.309D-02
 Coeff-Com: -0.237D-01-0.486D-01 0.899D-01-0.266D-01 0.142D-01 0.142D-01
 Coeff-Com: -0.817D-01-0.446D-01 0.293D+00 0.820D+00
 Coeff:     -0.769D-04 0.112D-03-0.280D-04 0.480D-03-0.416D-02-0.309D-02
 Coeff:     -0.237D-01-0.486D-01 0.899D-01-0.266D-01 0.142D-01 0.142D-01
 Coeff:     -0.817D-01-0.446D-01 0.293D+00 0.820D+00
 Gap=     0.054 Goal=   None    Shift=    0.000
 Gap=     0.144 Goal=   None    Shift=    0.000
 RMSDP=1.00D-06 MaxDP=2.64D-04 DE= 1.03D-07 OVMax= 3.39D-03

 Cycle  17  Pass 1  IDiag  1:
 RMSU=  3.01D-07    CP:  9.53D-01  2.57D+00  8.69D-01  6.42D-01  9.91D-01
                    CP:  9.58D-01 -1.10D+00 -3.00D+00 -3.00D+00  3.00D+00
                    CP:  3.00D+00  1.29D+00  1.11D+00  1.76D+00  1.90D+00
                    CP:  1.61D+00
 E= -3385.68979714242     Delta-E=       -0.000000745340 Rises=F Damp=F
 DIIS: error= 6.49D-06 at cycle  17 NSaved=  17.
 NSaved=17 IEnMin= 9 EnMin= -3385.69229614050     IErMin=17 ErrMin= 6.49D-06
 ErrMax= 6.49D-06  0.00D+00 EMaxC= 1.00D-01 BMatC= 1.54D-07 BMatP= 6.96D-07
 IDIUse=1 WtCom= 1.00D+00 WtEn= 0.00D+00
 Coeff-Com:  0.147D-04-0.195D-04 0.913D-04 0.669D-04 0.148D-02 0.264D-02
 Coeff-Com: -0.826D-03-0.151D-01 0.442D-01-0.539D-01-0.721D-02 0.191D-01
 Coeff-Com:  0.702D-01-0.961D-01-0.220D+00 0.281D+00 0.974D+00
 Coeff:      0.147D-04-0.195D-04 0.913D-04 0.669D-04 0.148D-02 0.264D-02
 Coeff:     -0.826D-03-0.151D-01 0.442D-01-0.539D-01-0.721D-02 0.191D-01
 Coeff:      0.702D-01-0.961D-01-0.220D+00 0.281D+00 0.974D+00
 Gap=     0.054 Goal=   None    Shift=    0.000
 Gap=     0.144 Goal=   None    Shift=    0.000
 RMSDP=5.73D-07 MaxDP=1.54D-04 DE=-7.45D-07 OVMax= 8.05D-04

 Cycle  18  Pass 1  IDiag  1:
 RMSU=  1.64D-07    CP:  9.53D-01  2.57D+00  8.69D-01  6.43D-01  9.92D-01
                    CP:  9.64D-01 -1.09D+00 -3.00D+00 -3.00D+00  3.00D+00
                    CP:  3.00D+00  1.32D+00  1.14D+00  1.82D+00  1.81D+00
                    CP:  2.06D+00  2.07D+00
 E= -3385.68979745863     Delta-E=       -0.000000316213 Rises=F Damp=F
 DIIS: error= 8.34D-06 at cycle  18 NSaved=  18.
 NSaved=18 IEnMin= 9 EnMin= -3385.69229614050     IErMin=17 ErrMin= 6.49D-06
 ErrMax= 8.34D-06  0.00D+00 EMaxC= 1.00D-01 BMatC= 1.06D-07 BMatP= 1.54D-07
 IDIUse=1 WtCom= 1.00D+00 WtEn= 0.00D+00
 Coeff-Com: -0.853D-05 0.144D-04 0.301D-04-0.445D-04 0.591D-03-0.228D-03
 Coeff-Com:  0.436D-02 0.210D-01-0.262D-01 0.328D-02-0.128D-01-0.203D-01
 Coeff-Com:  0.260D-01 0.106D-01-0.845D-01-0.179D+00 0.276D+00 0.982D+00
 Coeff:     -0.853D-05 0.144D-04 0.301D-04-0.445D-04 0.591D-03-0.228D-03
 Coeff:      0.436D-02 0.210D-01-0.262D-01 0.328D-02-0.128D-01-0.203D-01
 Coeff:      0.260D-01 0.106D-01-0.845D-01-0.179D+00 0.276D+00 0.982D+00
 Gap=     0.054 Goal=   None    Shift=    0.000
 Gap=     0.144 Goal=   None    Shift=    0.000
 RMSDP=6.56D-07 MaxDP=1.94D-04 DE=-3.16D-07 OVMax= 2.22D-03

 Cycle  19  Pass 1  IDiag  1:
 RMSU=  8.86D-08    CP:  9.53D-01  2.57D+00  8.69D-01  6.42D-01  9.92D-01
                    CP:  9.60D-01 -1.11D+00 -3.00D+00 -3.00D+00  3.00D+00
                    CP:  3.00D+00  1.34D+00  1.22D+00  1.92D+00  1.72D+00
                    CP:  2.20D+00  2.74D+00  1.67D+00
 E= -3385.68979742539     Delta-E=        0.000000033244 Rises=F Damp=F
 DIIS: error= 3.51D-06 at cycle  19 NSaved=  19.
 NSaved=19 IEnMin= 9 EnMin= -3385.69229614050     IErMin=19 ErrMin= 3.51D-06
 ErrMax= 3.51D-06  0.00D+00 EMaxC= 1.00D-01 BMatC= 3.23D-08 BMatP= 1.06D-07
 IDIUse=1 WtCom= 1.00D+00 WtEn= 0.00D+00
 Coeff-Com: -0.227D-04 0.329D-04-0.201D-04 0.298D-04-0.668D-03-0.172D-02
 Coeff-Com:  0.210D-04 0.154D-01-0.305D-01 0.254D-01-0.107D-02-0.151D-01
 Coeff-Com: -0.248D-01 0.170D-01 0.601D-01-0.106D+00-0.155D+00 0.277D+00
 Coeff-Com:  0.940D+00
 Coeff:     -0.227D-04 0.329D-04-0.201D-04 0.298D-04-0.668D-03-0.172D-02
 Coeff:      0.210D-04 0.154D-01-0.305D-01 0.254D-01-0.107D-02-0.151D-01
 Coeff:     -0.248D-01 0.170D-01 0.601D-01-0.106D+00-0.155D+00 0.277D+00
 Coeff:      0.940D+00
 Gap=     0.054 Goal=   None    Shift=    0.000
 Gap=     0.144 Goal=   None    Shift=    0.000
 RMSDP=3.12D-07 MaxDP=8.02D-05 DE= 3.32D-08 OVMax= 1.06D-03

 Cycle  20  Pass 1  IDiag  1:
 RMSU=  4.97D-08    CP:  9.53D-01  2.57D+00  8.69D-01  6.42D-01  9.91D-01
                    CP:  9.56D-01 -1.12D+00 -3.00D+00 -3.00D+00  3.00D+00
                    CP:  3.00D+00  1.34D+00  1.24D+00  1.97D+00  1.73D+00
                    CP:  2.24D+00  2.91D+00  2.05D+00  1.70D+00
 E= -3385.68979746316     Delta-E=       -0.000000037768 Rises=F Damp=F
 DIIS: error= 1.17D-06 at cycle  20 NSaved=  20.
 NSaved=20 IEnMin= 9 EnMin= -3385.69229614050     IErMin=20 ErrMin= 1.17D-06
 ErrMax= 1.17D-06  0.00D+00 EMaxC= 1.00D-01 BMatC= 7.27D-09 BMatP= 3.23D-08
 IDIUse=1 WtCom= 1.00D+00 WtEn= 0.00D+00
 Coeff-Com: -0.666D-05 0.903D-05-0.216D-04 0.128D-04-0.210D-03-0.390D-03
 Coeff-Com: -0.418D-03 0.177D-02-0.851D-02 0.106D-01 0.368D-02 0.243D-02
 Coeff-Com: -0.151D-01-0.919D-02 0.327D-01 0.340D-02-0.101D+00-0.189D+00
 Coeff-Com:  0.388D+00 0.881D+00
 Coeff:     -0.666D-05 0.903D-05-0.216D-04 0.128D-04-0.210D-03-0.390D-03
 Coeff:     -0.418D-03 0.177D-02-0.851D-02 0.106D-01 0.368D-02 0.243D-02
 Coeff:     -0.151D-01-0.919D-02 0.327D-01 0.340D-02-0.101D+00-0.189D+00
 Coeff:      0.388D+00 0.881D+00
 Gap=     0.054 Goal=   None    Shift=    0.000
 Gap=     0.144 Goal=   None    Shift=    0.000
 RMSDP=1.12D-07 MaxDP=3.33D-05 DE=-3.78D-08 OVMax= 1.57D-04

 Cycle  21  Pass 1  IDiag  1:
 Restarting incremental Fock formation.
 E= -3385.68979747499     Delta-E=       -0.000000011836 Rises=F Damp=F
 DIIS: error= 1.65D-06 at cycle  21 NSaved=  20.
 NSaved=20 IEnMin= 8 EnMin= -3385.69229614050     IErMin=19 ErrMin= 1.17D-06
 ErrMax= 1.65D-06  0.00D+00 EMaxC= 1.00D-01 BMatC= 4.31D-09 BMatP= 7.27D-09
 IDIUse=1 WtCom= 1.00D+00 WtEn= 0.00D+00
 Coeff-Com:  0.101D-05-0.635D-05-0.275D-04 0.242D-03 0.586D-03 0.383D-03
 Coeff-Com: -0.427D-02 0.652D-02-0.423D-02 0.167D-02 0.769D-02 0.468D-02
 Coeff-Com: -0.121D-01-0.138D-01 0.256D-01 0.166D-01-0.172D+00-0.147D+00
 Coeff-Com:  0.446D+00 0.844D+00
 Coeff:      0.101D-05-0.635D-05-0.275D-04 0.242D-03 0.586D-03 0.383D-03
 Coeff:     -0.427D-02 0.652D-02-0.423D-02 0.167D-02 0.769D-02 0.468D-02
 Coeff:     -0.121D-01-0.138D-01 0.256D-01 0.166D-01-0.172D+00-0.147D+00
 Coeff:      0.446D+00 0.844D+00
 Gap=     0.054 Goal=   None    Shift=    0.000
 Gap=     0.144 Goal=   None    Shift=    0.000
 RMSDP=9.63D-08 MaxDP=2.97D-05 DE=-1.18D-08 OVMax= 3.03D-04

 Cycle  22  Pass 1  IDiag  1:
 RMSU=  9.62D-08    CP:  1.00D+00
 E= -3385.68979747497     Delta-E=        0.000000000020 Rises=F Damp=F
 DIIS: error= 1.14D-06 at cycle  22 NSaved=  20.
 NSaved=20 IEnMin= 7 EnMin= -3385.69229614050     IErMin=20 ErrMin= 1.14D-06
 ErrMax= 1.14D-06  0.00D+00 EMaxC= 1.00D-01 BMatC= 2.01D-09 BMatP= 4.31D-09
 IDIUse=1 WtCom= 1.00D+00 WtEn= 0.00D+00
 Coeff-Com: -0.254D-05-0.291D-04 0.197D-03 0.451D-03 0.470D-03-0.272D-02
 Coeff-Com:  0.606D-02-0.515D-02-0.447D-03 0.311D-02 0.723D-02-0.954D-03
 Coeff-Com: -0.146D-01 0.152D-02 0.200D-01-0.203D-01-0.151D+00-0.373D-01
 Coeff-Com:  0.414D+00 0.780D+00
 Coeff:     -0.254D-05-0.291D-04 0.197D-03 0.451D-03 0.470D-03-0.272D-02
 Coeff:      0.606D-02-0.515D-02-0.447D-03 0.311D-02 0.723D-02-0.954D-03
 Coeff:     -0.146D-01 0.152D-02 0.200D-01-0.203D-01-0.151D+00-0.373D-01
 Coeff:      0.414D+00 0.780D+00
 Gap=     0.054 Goal=   None    Shift=    0.000
 Gap=     0.144 Goal=   None    Shift=    0.000
 RMSDP=5.21D-08 MaxDP=1.63D-05 DE= 2.00D-11 OVMax= 1.84D-04

 Cycle  23  Pass 1  IDiag  1:
 RMSU=  2.06D-08    CP:  1.00D+00  1.50D+00
 E= -3385.68979747546     Delta-E=       -0.000000000486 Rises=F Damp=F
 DIIS: error= 5.06D-07 at cycle  23 NSaved=  20.
 NSaved=20 IEnMin= 6 EnMin= -3385.69229614050     IErMin=20 ErrMin= 5.06D-07
 ErrMax= 5.06D-07  0.00D+00 EMaxC= 1.00D-01 BMatC= 4.53D-10 BMatP= 2.01D-09
 IDIUse=1 WtCom= 1.00D+00 WtEn= 0.00D+00
 Coeff-Com: -0.558D-05 0.172D-04 0.479D-04 0.954D-04-0.237D-03 0.122D-02
 Coeff-Com: -0.103D-02-0.759D-03-0.922D-03 0.178D-02 0.539D-02 0.813D-03
 Coeff-Com: -0.113D-01-0.123D-01 0.371D-01 0.417D-02-0.121D+00-0.718D-01
 Coeff-Com:  0.292D+00 0.877D+00
 Coeff:     -0.558D-05 0.172D-04 0.479D-04 0.954D-04-0.237D-03 0.122D-02
 Coeff:     -0.103D-02-0.759D-03-0.922D-03 0.178D-02 0.539D-02 0.813D-03
 Coeff:     -0.113D-01-0.123D-01 0.371D-01 0.417D-02-0.121D+00-0.718D-01
 Coeff:      0.292D+00 0.877D+00
 Gap=     0.054 Goal=   None    Shift=    0.000
 Gap=     0.144 Goal=   None    Shift=    0.000
 RMSDP=1.88D-08 MaxDP=4.15D-06 DE=-4.86D-10 OVMax= 3.56D-05

 Cycle  24  Pass 1  IDiag  1:
 RMSU=  1.20D-08    CP:  1.00D+00  1.56D+00  1.63D+00
 E= -3385.68979747688     Delta-E=       -0.000000001426 Rises=F Damp=F
 DIIS: error= 1.09D-07 at cycle  24 NSaved=  20.
 NSaved=20 IEnMin= 5 EnMin= -3385.69229614050     IErMin=20 ErrMin= 1.09D-07
 ErrMax= 1.09D-07  0.00D+00 EMaxC= 1.00D-01 BMatC= 4.44D-11 BMatP= 4.53D-10
 IDIUse=1 WtCom= 1.00D+00 WtEn= 0.00D+00
 Coeff-Com: -0.520D-04-0.892D-04-0.591D-04 0.424D-03-0.549D-03 0.551D-03
 Coeff-Com: -0.238D-03-0.101D-02-0.106D-02 0.243D-02 0.415D-02-0.359D-02
 Coeff-Com: -0.105D-01 0.135D-01 0.356D-01-0.251D-01-0.111D+00-0.861D-01
 Coeff-Com:  0.264D+00 0.918D+00
 Coeff:     -0.520D-04-0.892D-04-0.591D-04 0.424D-03-0.549D-03 0.551D-03
 Coeff:     -0.238D-03-0.101D-02-0.106D-02 0.243D-02 0.415D-02-0.359D-02
 Coeff:     -0.105D-01 0.135D-01 0.356D-01-0.251D-01-0.111D+00-0.861D-01
 Coeff:      0.264D+00 0.918D+00
 Gap=     0.054 Goal=   None    Shift=    0.000
 Gap=     0.144 Goal=   None    Shift=    0.000
 RMSDP=7.12D-09 MaxDP=1.37D-06 DE=-1.43D-09 OVMax= 1.12D-05

 Cycle  25  Pass 1  IDiag  1:
 RMSU=  2.72D-09    CP:  1.00D+00  1.58D+00  1.86D+00  1.35D+00
 E= -3385.68979747691     Delta-E=       -0.000000000031 Rises=F Damp=F
 DIIS: error= 9.89D-08 at cycle  25 NSaved=  20.
 NSaved=20 IEnMin= 4 EnMin= -3385.69229614050     IErMin=20 ErrMin= 9.89D-08
 ErrMax= 9.89D-08  0.00D+00 EMaxC= 1.00D-01 BMatC= 2.19D-11 BMatP= 4.44D-11
 IDIUse=1 WtCom= 1.00D+00 WtEn= 0.00D+00
 Coeff-Com:  0.146D-04-0.262D-05-0.746D-05-0.141D-03 0.580D-04 0.103D-03
 Coeff-Com:  0.123D-03-0.515D-03-0.107D-02 0.271D-03 0.318D-02 0.225D-02
 Coeff-Com: -0.929D-02 0.227D-02 0.270D-01-0.298D-02-0.940D-01-0.157D+00
 Coeff-Com:  0.309D+00 0.920D+00
 Coeff:      0.146D-04-0.262D-05-0.746D-05-0.141D-03 0.580D-04 0.103D-03
 Coeff:      0.123D-03-0.515D-03-0.107D-02 0.271D-03 0.318D-02 0.225D-02
 Coeff:     -0.929D-02 0.227D-02 0.270D-01-0.298D-02-0.940D-01-0.157D+00
 Coeff:      0.309D+00 0.920D+00
 Gap=     0.054 Goal=   None    Shift=    0.000
 Gap=     0.144 Goal=   None    Shift=    0.000
 RMSDP=4.91D-09 MaxDP=1.25D-06 DE=-3.09D-11 OVMax= 1.47D-05

 Cycle  26  Pass 1  IDiag  1:
 RMSU=  2.40D-09    CP:  1.00D+00  1.55D+00  1.82D+00  1.58D+00  1.59D+00
 E= -3385.68979747625     Delta-E=        0.000000000664 Rises=F Damp=F
 DIIS: error= 6.45D-08 at cycle  26 NSaved=  20.
 NSaved=20 IEnMin= 3 EnMin= -3385.69229614050     IErMin=20 ErrMin= 6.45D-08
 ErrMax= 6.45D-08  0.00D+00 EMaxC= 1.00D-01 BMatC= 1.09D-11 BMatP= 2.19D-11
 IDIUse=1 WtCom= 1.00D+00 WtEn= 0.00D+00
 Coeff-Com: -0.257D-04-0.630D-04 0.493D-05-0.143D-04 0.126D-03 0.247D-03
 Coeff-Com: -0.164D-03-0.109D-02-0.476D-03 0.312D-02 0.398D-02-0.902D-02
 Coeff-Com: -0.831D-02 0.198D-01 0.224D-01-0.311D-01-0.138D+00-0.315D-01
 Coeff-Com:  0.491D+00 0.680D+00
 Coeff:     -0.257D-04-0.630D-04 0.493D-05-0.143D-04 0.126D-03 0.247D-03
 Coeff:     -0.164D-03-0.109D-02-0.476D-03 0.312D-02 0.398D-02-0.902D-02
 Coeff:     -0.831D-02 0.198D-01 0.224D-01-0.311D-01-0.138D+00-0.315D-01
 Coeff:      0.491D+00 0.680D+00
 Gap=     0.054 Goal=   None    Shift=    0.000
 Gap=     0.144 Goal=   None    Shift=    0.000
 RMSDP=2.15D-09 MaxDP=5.20D-07 DE= 6.64D-10 OVMax= 6.21D-06

 Error on total polarization charges =  0.04271
 SCF Done:  E(UM062X) =  -3385.68979748     A.U. after   26 cycles
            NFock= 26  Conv=0.22D-08     -V/T= 2.0057
 <Sx>= 0.0000 <Sy>= 0.0000 <Sz>= 0.5000 <S**2>= 0.8122 S= 0.5306
 <L.S>= 0.000000000000E+00
 KE= 3.366526409310D+03 PE=-2.886933295833D+04 EE= 1.163892564224D+04
 Annihilation of the first spin contaminant:
 S**2 before annihilation     0.8122,   after     0.7524
 Leave Link  502 at Fri Nov  7 00:34:15 2025, MaxMem= 30870077440 cpu:          413057.7 elap:            6543.4
 (Enter /public/software/gauss/g16/l601.exe)
 Copying SCF densities to generalized density rwf, IOpCl= 1 IROHF=0.
 Hyperfine terms turned off by default for NAtoms > 100.

 **********************************************************************

            Population analysis using the SCF density.

 **********************************************************************

 Orbital symmetries:
 Alpha Orbitals:
       Occupied  (A) (A) (A) (A) (A) (A) (A) (A) (A) (A) (A) (A)
                 (A) (A) (A) (A) (A) (A) (A) (A) (A) (A) (A) (A)
                 (A) (A) (A) (A) (A) (A) (A) (A) (A) (A) (A) (A)
                 (A) (A) (A) (A) (A) (A) (A) (A) (A) (A) (A) (A)
                 (A) (A) (A) (A) (A) (A) (A) (A) (A) (A) (A) (A)
                 (A) (A) (A) (A) (A) (A) (A) (A) (A) (A) (A) (A)
                 (A) (A) (A) (A) (A) (A) (A) (A) (A) (A) (A) (A)
                 (A) (A) (A) (A) (A) (A) (A) (A) (A) (A) (A) (A)
                 (A) (A) (A) (A) (A) (A) (A) (A) (A) (A) (A) (A)
                 (A) (A) (A) (A) (A) (A) (A) (A) (A) (A) (A) (A)
                 (A) (A) (A) (A) (A) (A) (A) (A) (A) (A) (A) (A)
                 (A) (A) (A) (A) (A) (A) (A) (A) (A) (A) (A) (A)
                 (A) (A) (A) (A) (A) (A) (A) (A) (A) (A) (A) (A)
                 (A) (A) (A) (A) (A) (A) (A) (A) (A) (A) (A) (A)
                 (A) (A) (A) (A) (A) (A) (A) (A) (A) (A) (A) (A)
                 (A) (A) (A) (A) (A) (A) (A) (A) (A) (A) (A) (A)
                 (A) (A) (A) (A) (A) (A) (A) (A) (A) (A) (A) (A)
                 (A) (A) (A) (A) (A) (A) (A) (A) (A) (A) (A) (A)
                 (A) (A) (A) (A) (A) (A) (A) (A) (A) (A) (A) (A)
                 (A) (A) (A) (A) (A) (A) (A) (A) (A) (A) (A) (A)
                 (A) (A) (A) (A) (A) (A) (A) (A) (A) (A) (A) (A)
                 (A) (A) (A) (A) (A) (A) (A) (A) (A) (A) (A) (A)
                 (A) (A) (A) (A) (A) (A) (A) (A) (A) (A) (A) (A)
                 (A) (A) (A) (A) (A) (A) (A) (A) (A) (A) (A) (A)
       Virtual   (A) (A) (A) (A) (A) (A) (A) (A) (A) (A) (A) (A)
                 (A) (A) (A) (A) (A) (A) (A) (A) (A) (A) (A) (A)
                 (A) (A) (A) (A) (A) (A) (A) (A) (A) (A) (A) (A)
                 (A) (A) (A) (A) (A) (A) (A) (A) (A) (A) (A) (A)
                 (A) (A) (A) (A) (A) (A) (A) (A) (A) (A) (A) (A)
                 (A) (A) (A) (A) (A) (A) (A) (A) (A) (A) (A) (A)
                 (A) (A) (A) (A) (A) (A) (A) (A) (A) (A) (A) (A)
                 (A) (A) (A) (A) (A) (A) (A) (A) (A) (A) (A) (A)
                 (A) (A) (A) (A) (A) (A) (A) (A) (A) (A) (A) (A)
                 (A) (A) (A) (A) (A) (A) (A) (A) (A) (A) (A) (A)
                 (A) (A) (A) (A) (A) (A) (A) (A) (A) (A) (A) (A)
                 (A) (A) (A) (A) (A) (A) (A) (A) (A) (A) (A) (A)
                 (A) (A) (A) (A) (A) (A) (A) (A) (A) (A) (A) (A)
[...]
  Beta virt. eigenvalues --    5.56405   5.57150   5.57400   5.57466   5.57647
  Beta virt. eigenvalues --    5.57932   5.58275   5.58717   5.58793   5.59058
  Beta virt. eigenvalues --    5.59156   5.59307   5.59316   5.59356   5.59878
  Beta virt. eigenvalues --    5.60406   5.60754   5.61414   5.61441   5.61694
  Beta virt. eigenvalues --    5.62133   5.62419   5.62429   5.62488   5.62695
  Beta virt. eigenvalues --    5.63033   5.63668   5.63755   5.64538   5.64636
  Beta virt. eigenvalues --    5.64721   5.64833   5.65235   5.65680   5.65766
  Beta virt. eigenvalues --    5.66018   5.66064   5.66594   5.66624   5.66648
  Beta virt. eigenvalues --    5.66823   5.67131   5.67647   5.68240   5.68366
  Beta virt. eigenvalues --    5.68628   5.68864   5.69076   5.69537   5.69547
  Beta virt. eigenvalues --    5.69666   5.69890   5.70000   5.70037   5.70166
  Beta virt. eigenvalues --    5.70435   5.70978   5.71007   5.71633   5.72400
  Beta virt. eigenvalues --    5.73440   5.73591   5.73636   5.74170   5.74484
  Beta virt. eigenvalues --    5.74806   5.74822   5.75000   5.75016   5.76864
  Beta virt. eigenvalues --    5.77709   5.78147   5.79804   5.80913   5.81442
  Beta virt. eigenvalues --    5.83334   5.84563   5.86416   5.87176   5.87603
  Beta virt. eigenvalues --    5.87708   5.89019   5.92716   5.93627   5.95359
  Beta virt. eigenvalues --    5.97475   5.99443   6.00061   6.02728   6.02972
  Beta virt. eigenvalues --    6.03113   6.04212   6.04628   6.05423   6.05646
  Beta virt. eigenvalues --    6.06824   6.08875   6.13109   6.14061   6.15516
  Beta virt. eigenvalues --    6.18173   6.18447   6.20143   6.23534   6.27018
  Beta virt. eigenvalues --    6.28414   6.30656   6.33423   6.40247   6.41865
  Beta virt. eigenvalues --    6.42164   6.42274   6.42967   6.43934   6.57917
  Beta virt. eigenvalues --    6.72158   6.73605   6.73951   6.74145   6.77852
  Beta virt. eigenvalues --    6.78380   6.78530   6.79974   6.85137   6.85663
  Beta virt. eigenvalues --    6.93923   6.94416   6.94534   6.94994   6.97761
  Beta virt. eigenvalues --    6.99245   6.99618   7.00438   7.03461   7.05860
  Beta virt. eigenvalues --    7.11722   7.12149   7.15638   7.17914   7.23014
  Beta virt. eigenvalues --    7.24911   7.27470   7.33893   7.34098   7.34564
  Beta virt. eigenvalues --    7.35405   7.47655   7.48314   7.60594   7.60948
  Beta virt. eigenvalues --    8.45311   8.47075   8.57195   8.59255   8.82730
  Beta virt. eigenvalues --    8.87839   8.91411   8.92043   8.92560   9.00484
  Beta virt. eigenvalues --   15.88686  22.87824  22.88742  22.90556  22.92806
  Beta virt. eigenvalues --   22.96557  22.98801  23.11655  23.13151  23.14111
  Beta virt. eigenvalues --   23.14866  23.17379  23.17833  23.19234  23.23466
  Beta virt. eigenvalues --   23.26595  23.27321  23.28500  23.30487  23.30788
  Beta virt. eigenvalues --   23.30830  23.31097  23.32222  23.33206  23.33616
  Beta virt. eigenvalues --   23.33783  23.33850  23.36621  23.36800  23.36908
  Beta virt. eigenvalues --   23.37113  23.38746  23.39494  23.39546  23.42058
  Beta virt. eigenvalues --   23.42678  23.42893  23.46342  23.46408  23.49253
  Beta virt. eigenvalues --   23.49527  23.49606  23.50969  23.50981  23.51151
  Beta virt. eigenvalues --   23.51724  23.51744  23.51844  23.51845  23.53193
  Beta virt. eigenvalues --   23.53276  23.56895  23.62519  23.67360  23.68182
  Beta virt. eigenvalues --   23.68183  23.72116  23.77162  23.78134  23.79006
  Beta virt. eigenvalues --   23.81186  24.01512  24.03253  24.10889  24.18653
  Beta virt. eigenvalues --   24.33445  24.34870  24.42569  24.46093  32.43612
  Beta virt. eigenvalues --   33.14473  33.18177  33.32754  44.12742  44.16975
  Beta virt. eigenvalues --   44.64201  44.64853  57.33691  57.57156
          Condensed to atoms (all electrons):
          Atomic-Atomic Spin Densities.
 Mulliken charges and spin densities:
               1          2
     1  B    0.375689   0.001659
     2  N   -0.102859  -0.002508
     3  C    0.089499  -0.110464
     4  C    0.042407   0.390641
     5  C    0.102553  -0.109062
     6  N   -0.119890   0.034986
     7  C    0.028576   0.140182
     8  C    0.065518  -0.057158
     9  C    0.013007   0.134372
    10  C    0.076464  -0.006697
    11  C    0.064505  -0.046008
    12  C    0.038944   0.214975
    13  C   -0.410125  -0.000770
    14  C   -0.447000  -0.016649
    15  F   -0.348071   0.000603
    16  F   -0.364652   0.000438
    17  C   -0.452593  -0.009661
    18  C   -0.181990  -0.063313
    19  C   -0.266546  -0.011251
    20  C   -0.159452   0.004373
    21  C   -0.167793  -0.002514
    22  C    0.213585   0.003960
    23  C   -0.144175  -0.002862
    24  C   -0.184080   0.005260
    25  O   -0.295383   0.000434
    26  C   -0.096138  -0.000040
    27  C   -0.194281  -0.000022
    28  C   -0.210628   0.000007
    29  C   -0.202531  -0.000000
    30  C   -0.189551  -0.000000
    31  C   -0.193013  -0.000000
    32  C   -0.191471  -0.000000
    33  C   -0.188245  -0.000000
    34  C   -0.186171  -0.000000
    35  C   -0.179190   0.000000
    36  C   -0.157360  -0.000000
    37  C   -0.365132  -0.000000
    38  C   -0.164748   0.018004
    39  C   -0.018789   0.019039
    40  C   -0.012947   0.021502
    41  C   -0.156830   0.002300
    42  C   -0.129106   0.029475
    43  C   -0.000180   0.006675
    44  C   -0.128940   0.028726
    45  C   -0.156808   0.002667
    46  N    0.426640   0.056649
    47  O   -0.458096   0.076271
    48  O   -0.457555   0.076565
    49  C   -0.106000   0.004365
    50  C   -0.127479   0.001656
    51  C   -0.023692   0.003794
    52  C   -0.167016  -0.002454
    53  C   -0.204534   0.001474
    54  C    0.149330  -0.002557
    55  C   -0.196460   0.001514
    56  C   -0.158427  -0.002682
    57  N   -0.204538  -0.001081
    58  C   -0.292005   0.000065
    59  C   -0.292227   0.000070
    60  C   -0.056997   0.102354
    61  C    0.011805  -0.025236
    62  C   -0.142877   0.026370
    63  C   -0.212946  -0.016293
    64  C    0.213755   0.028655
    65  C   -0.168021  -0.015635
    66  C   -0.195974   0.032824
    67  O   -0.292613   0.003974
    68  C   -0.094107  -0.000286
    69  C   -0.195080  -0.000154
    70  C   -0.210732   0.000021
    71  C   -0.202480  -0.000007
    72  C   -0.189633  -0.000002
    73  C   -0.192764  -0.000000
    74  C   -0.191456  -0.000000
    75  C   -0.188022  -0.000000
    76  C   -0.186124  -0.000000
    77  C   -0.179020  -0.000000
    78  C   -0.157350  -0.000000
    79  C   -0.365041  -0.000000
    80  H    0.156693   0.000750
    81  H    0.153228   0.000729
    82  H    0.127013   0.000832
    83  H    0.115790   0.001136
    84  H    0.153009   0.011496
    85  H    0.146116   0.008041
    86  H    0.147789   0.005146
    87  H    0.117938   0.000601
    88  H    0.156884   0.007876
    89  H    0.117318   0.002893
    90  H    0.162780   0.000236
    91  H    0.158222   0.000452
    92  H    0.155601   0.000472
    93  H    0.161468  -0.000236
    94  H    0.136874   0.000061
    95  H    0.138234   0.000026
    96  H    0.106883  -0.000001
    97  H    0.106402  -0.000001
    98  H    0.105229  -0.000001
    99  H    0.105704  -0.000001
   100  H    0.100627   0.000000
   101  H    0.100248   0.000000
   102  H    0.097476   0.000000
   103  H    0.097728   0.000000
   104  H    0.096840   0.000000
   105  H    0.096610  -0.000000
   106  H    0.096133   0.000000
   107  H    0.096247   0.000000
   108  H    0.095759   0.000000
   109  H    0.095659   0.000000
   110  H    0.094592   0.000000
   111  H    0.094596   0.000000
   112  H    0.092349   0.000000
   113  H    0.092342   0.000000
   114  H    0.089065   0.000000
   115  H    0.089107   0.000000
   116  H    0.117796   0.000000
   117  H    0.107092   0.000000
   118  H    0.107144   0.000000
   119  H    0.157476  -0.000347
   120  H    0.184301  -0.001679
   121  H    0.184127  -0.001639
   122  H    0.157949  -0.000352
   123  H    0.148205  -0.000485
   124  H    0.156568  -0.000014
   125  H    0.156424  -0.000015
   126  H    0.148621   0.000078
   127  H    0.155059  -0.000090
   128  H    0.133404  -0.000034
   129  H    0.130061  -0.000006
   130  H    0.133570  -0.000034
   131  H    0.155122  -0.000092
   132  H    0.130129  -0.000006
   133  H    0.089837  -0.006453
   134  H    0.145208  -0.000540
   135  H    0.156362   0.000275
   136  H    0.148981   0.000148
   137  H    0.147246  -0.001390
   138  H    0.138489   0.000331
   139  H    0.138605   0.000328
   140  H    0.106650  -0.000007
   141  H    0.106817  -0.000007
   142  H    0.105706  -0.000006
   143  H    0.105601  -0.000007
   144  H    0.100290   0.000001
   145  H    0.100465   0.000001
   146  H    0.097723   0.000000
   147  H    0.097502   0.000000
   148  H    0.096584  -0.000000
   149  H    0.096682  -0.000000
   150  H    0.096247  -0.000000
   151  H    0.096076  -0.000000
   152  H    0.095605   0.000000
   153  H    0.095633   0.000000
   154  H    0.094610   0.000000
   155  H    0.094494   0.000000
   156  H    0.092282   0.000000
   157  H    0.092255   0.000000
   158  H    0.089099   0.000000
   159  H    0.089046   0.000000
   160  H    0.117780  -0.000000
   161  H    0.107080   0.000000
   162  H    0.107099   0.000000
 Sum of Mulliken charges =  -1.00000   1.00000
 Mulliken charges and spin densities with hydrogens summed into heavy atoms:
               1          2
     1  B    0.375689   0.001659
     2  N   -0.102859  -0.002508
     3  C    0.089499  -0.110464
     4  C    0.042407   0.390641
     5  C    0.102553  -0.109062
     6  N   -0.119890   0.034986
     7  C    0.028576   0.140182
     8  C    0.065518  -0.057158
     9  C    0.013007   0.134372
    10  C    0.076464  -0.006697
    11  C    0.064505  -0.046008
    12  C    0.038944   0.214975
    13  C    0.026809   0.001541
    14  C   -0.032085   0.004024
    15  F   -0.348071   0.000603
    16  F   -0.364652   0.000438
    17  C   -0.029982   0.003962
    18  C   -0.064672  -0.060420
    19  C   -0.266546  -0.011251
    20  C    0.003328   0.004609
    21  C   -0.009571  -0.002062
    22  C    0.213585   0.003960
    23  C    0.011426  -0.002391
    24  C   -0.022611   0.005025
    25  O   -0.295383   0.000434
    26  C    0.178970   0.000047
    27  C    0.019004  -0.000024
    28  C    0.000304   0.000005
    29  C   -0.001656  -0.000000
    30  C    0.005653   0.000000
    31  C    0.000437  -0.000000
    32  C    0.000909  -0.000000
    33  C    0.003173  -0.000000
    34  C    0.003017  -0.000000
    35  C    0.005501   0.000000
    36  C    0.020812  -0.000000
    37  C   -0.033100  -0.000000
    38  C   -0.164748   0.018004
    39  C   -0.018789   0.019039
    40  C   -0.012947   0.021502
    41  C    0.000646   0.001954
    42  C    0.055196   0.027797
    43  C   -0.000180   0.006675
    44  C    0.055187   0.027086
    45  C    0.001141   0.002315
    46  N    0.426640   0.056649
    47  O   -0.458096   0.076271
    48  O   -0.457555   0.076565
    49  C   -0.106000   0.004365
    50  C   -0.127479   0.001656
    51  C   -0.023692   0.003794
    52  C   -0.018811  -0.002939
    53  C   -0.047966   0.001460
    54  C    0.149330  -0.002557
    55  C   -0.040035   0.001499
    56  C   -0.009806  -0.002604
    57  N   -0.204538  -0.001081
    58  C    0.126519  -0.000065
    59  C    0.126594  -0.000063
    60  C    0.032840   0.095901
    61  C    0.011805  -0.025236
    62  C    0.002330   0.025830
    63  C   -0.056584  -0.016019
    64  C    0.213755   0.028655
    65  C   -0.019040  -0.015487
    66  C   -0.048728   0.031434
    67  O   -0.292613   0.003974
    68  C    0.182988   0.000374
    69  C    0.018387  -0.000167
    70  C    0.000575   0.000008
    71  C   -0.001725  -0.000005
    72  C    0.005593  -0.000001
    73  C    0.000502  -0.000000
    74  C    0.000866  -0.000000
    75  C    0.003216  -0.000000
    76  C    0.002980   0.000000
    77  C    0.005518  -0.000000
    78  C    0.020795  -0.000000
    79  C   -0.033081  -0.000000
 Electronic spatial extent (au):  <R**2>=         266915.1726
 Charge=             -1.0000 electrons
 Dipole moment (field-independent basis, Debye):
    X=             -5.4154    Y=            -32.7748    Z=              0.9075  Tot=             33.2315
 Quadrupole moment (field-independent basis, Debye-Ang):
   XX=           -437.2081   YY=           -800.6805   ZZ=           -493.8556
   XY=           -106.8111   XZ=             18.1316   YZ=             22.3608
 Traceless Quadrupole moment (field-independent basis, Debye-Ang):
   XX=            140.0399   YY=           -223.4324   ZZ=             83.3925
   XY=           -106.8111   XZ=             18.1316   YZ=             22.3608
 Octapole moment (field-independent basis, Debye-Ang**2):
  XXX=           -199.3194  YYY=          -6297.0683  ZZZ=              0.2494  XYY=          -1578.4042
  XXY=           -361.1016  XXZ=             91.0544  XZZ=            -21.1346  YZZ=              9.5507
  YYZ=             13.3716  XYZ=            -11.3807
 Hexadecapole moment (field-independent basis, Debye-Ang**3):
 XXXX=        -292165.4197 YYYY=        -137145.8104 ZZZZ=          -2600.5739 XXXY=          -1531.0744
 XXXZ=           1591.5309 YYYX=         -17504.3470 YYYZ=           3808.5352 ZZZX=           -150.6276
 ZZZY=             -7.9014 XXYY=         -66475.0806 XXZZ=         -49475.6641 YYZZ=         -13465.0301
 XXYZ=            308.0500 YYXZ=            861.9969 ZZXY=            -38.0007
 N-N= 1.047819110930D+04 E-N=-2.886933301228D+04  KE= 3.366526409310D+03
 Leave Link  601 at Fri Nov  7 00:34:20 2025, MaxMem= 30870077440 cpu:             265.0 elap:               4.8
 (Enter /public/software/gauss/g16/l9999.exe)
 1\1\GINC-CU019\SP\UM062X\def2TZVPP\C68H83B1F2N4O4(1-,2)\BAIDING\07-Nov
 -2025\0\\#p M062X/DEF2TZVPP scrf=(solvent=water) em=GD3\\Energy calcul
 ation for M100034546_reduced\\-1,2\B,0,-0.701641,1.539357,0.032115\N,0
 ,0.485288,2.522534,-0.135033\C,0,1.826075,2.156765,-0.352266\C,0,2.176
 768,0.79957,-0.468786\C,0,1.191717,-0.207382,-0.416637\N,0,-0.161724,0
 .117692,-0.273565\C,0,1.303011,-1.628152,-0.479913\C,0,-0.002796,-2.13
 8557,-0.377992\C,0,-0.900197,-1.026232,-0.244342\C,0,0.397371,3.861592
 ,-0.074977\C,0,1.695141,4.41798,-0.263296\C,0,2.599499,3.349616,-0.441
 548\C,0,-0.877685,4.597291,0.148528\C,0,4.06491,3.526303,-0.687325\F,0
 ,-1.198228,1.600229,1.341195\F,0,-1.723586,1.88196,-0.866382\C,0,2.521
 456,-2.483845,-0.628908\C,0,-2.334496,-0.994356,-0.124482\C,0,3.609864
 ,0.429394,-0.658839\C,0,4.110444,0.132359,-1.936984\C,0,5.447339,-0.20
 076,-2.116408\C,0,6.315739,-0.254132,-1.014609\C,0,5.82929,0.035129,0.
 266579\C,0,4.485265,0.379381,0.430673\O,0,7.610601,-0.595229,-1.293123
 \C,0,8.553149,-0.671569,-0.206299\C,0,9.903004,-1.052573,-0.792056\C,0
 ,10.988365,-1.165044,0.284806\C,0,12.362841,-1.531285,-0.286826\C,0,13
 .454954,-1.650416,0.782199\C,0,14.83307,-2.003815,0.210955\C,0,15.9262
 43,-2.127156,1.278764\C,0,17.306157,-2.471361,0.70617\C,0,18.399186,-2
 .598351,1.773713\C,0,19.780079,-2.936799,1.200573\C,0,20.872908,-3.067
 048,2.267801\C,0,22.248064,-3.402617,1.685909\C,0,1.98575,5.798341,-0.
 270675\C,0,2.238938,6.994762,-0.279997\C,0,2.534793,8.378182,-0.294475
 \C,0,3.875694,8.837781,-0.379239\C,0,4.17129,10.186406,-0.397434\C,0,3
 .128565,11.143237,-0.333089\C,0,1.785678,10.700809,-0.246801\C,0,1.501
 385,9.349644,-0.227285\N,0,3.42113,12.503272,-0.355876\O,0,2.4623,13.3
 71777,-0.312372\O,0,4.651797,12.896885,-0.424023\C,0,-0.349708,-3.5073
 5,-0.444708\C,0,-0.608859,-4.698021,-0.515759\C,0,-0.949926,-6.076,-0.
 596266\C,0,-2.297474,-6.494758,-0.605423\C,0,-2.637398,-7.83628,-0.688
 326\C,0,-1.643824,-8.845694,-0.756175\C,0,-0.291422,-8.419818,-0.76323
 5\C,0,0.041142,-7.076073,-0.68065\N,0,-1.980649,-10.190816,-0.791699\C
 ,0,-0.957919,-11.154125,-1.19523\C,0,-3.357574,-10.554786,-1.121821\C,
 0,-3.117616,-2.065743,0.164765\C,0,-4.568859,-2.076202,0.27965\C,0,-5.
 211851,-3.288938,0.61495\C,0,-6.589795,-3.370094,0.738131\C,0,-7.38202
 1,-2.22984,0.528031\C,0,-6.768653,-1.011175,0.193856\C,0,-5.384433,-0.
 945485,0.07405\O,0,-8.727427,-2.403961,0.670597\C,0,-9.601486,-1.27598
 ,0.464294\C,0,-11.027304,-1.753178,0.68583\C,0,-12.049839,-0.628424,0.
 486923\C,0,-13.495238,-1.08953,0.706943\C,0,-14.528085,0.025299,0.5066
 42\C,0,-15.973805,-0.435704,0.725547\C,0,-17.009826,0.67615,0.523213\C
 ,0,-18.455156,0.213593,0.741598\C,0,-19.492513,1.323989,0.537986\C,0,-
 20.937449,0.860765,0.756171\C,0,-21.975723,1.970103,0.552132\C,0,-23.4
 14767,1.497796,0.772178\H,0,-1.549285,4.482049,-0.708395\H,0,-1.402071
 ,4.20811,1.026301\H,0,-0.676144,5.659549,0.294914\H,0,4.281733,4.58317
 5,-0.863288\H,0,4.666532,3.199661,0.167524\H,0,4.407711,2.95601,-1.554
 866\H,0,3.300973,-2.213059,0.087759\H,0,2.255473,-3.531796,-0.470526\H
 ,0,2.961072,-2.397322,-1.627843\H,0,-2.790287,-0.023258,-0.281514\H,0,
 3.448005,0.167798,-2.796417\H,0,5.838102,-0.424759,-3.103848\H,0,6.478
 09,-0.000851,1.132786\H,0,4.116918,0.606363,1.426546\H,0,8.606305,0.29
 9773,0.301145\H,0,8.213365,-1.420303,0.52044\H,0,9.803229,-2.007073,-1
 .32371\H,0,10.19152,-0.299538,-1.535991\H,0,11.063299,-0.212736,0.8275
 43\H,0,10.689596,-1.919067,1.025891\H,0,12.285796,-2.48074,-0.835019\H
 ,0,12.659615,-0.774364,-1.026361\H,0,13.52454,-0.703346,1.335981\H,0,1
 3.160513,-2.412631,1.517578\H,0,14.762891,-2.948804,-0.346413\H,0,15.1
 27526,-1.239246,-0.522064\H,0,15.992257,-1.18417,1.840064\H,0,15.63459
 8,-2.895924,2.008543\H,0,17.239844,-3.412695,0.142123\H,0,17.598417,-1
 .700707,-0.02138\H,0,18.463019,-1.658355,2.34031\H,0,18.108743,-3.3717
 38,2.499124\H,0,19.717375,-3.875815,0.632012\H,0,20.072735,-2.16228,0.
 477101\H,0,20.935662,-2.129512,2.836906\H,0,20.582211,-3.842525,2.9895
 46\H,0,23.006136,-3.490386,2.471763\H,0,22.226109,-4.352279,1.138491\H
 ,0,22.582934,-2.627154,0.986973\H,0,4.680867,8.111439,-0.430814\H,0,5.
 196913,10.526201,-0.461599\H,0,0.990391,11.43309,-0.196256\H,0,0.46937
 2,9.019487,-0.160983\H,0,-3.08698,-5.750531,-0.556812\H,0,-3.687026,-8
 .100384,-0.700785\H,0,0.510298,-9.143747,-0.834173\H,0,1.088005,-6.788
 32,-0.686836\H,0,-0.5879,-10.979448,-2.216083\H,0,-0.104358,-11.129558
 ,-0.51305\H,0,-1.383368,-12.157005,-1.150095\H,0,-4.058613,-10.146138,
 -0.389475\H,0,-3.661647,-10.207983,-2.120218\H,0,-3.450095,-11.640689,
 -1.091837\H,0,-2.642495,-3.025555,0.342561\H,0,-4.608725,-4.177556,0.7
 81792\H,0,-7.075551,-4.305843,0.995564\H,0,-7.360018,-0.119427,0.02689
 3\H,0,-4.934946,0.007954,-0.185006\H,0,-9.339292,-0.477474,1.169301\H,
 0,-9.467755,-0.893165,-0.555045\H,0,-11.237599,-2.576436,-0.008202\H,0
 ,-11.111652,-2.159876,1.701278\H,0,-11.822598,0.197088,1.175322\H,0,-1
 1.949123,-0.219796,-0.527908\H,0,-13.718389,-1.918675,0.020895\H,0,-13
 .593873,-1.497963,1.722501\H,0,-14.304013,0.854665,1.19249\H,0,-14.427
 63,0.43386,-0.508952\H,0,-16.19617,-1.266648,0.04093\H,0,-16.073879,-0
 .843429,1.741585\H,0,-16.787991,1.50716,1.207938\H,0,-16.909602,1.0839
 34,-0.492811\H,0,-18.676223,-0.618189,0.057533\H,0,-18.555368,-0.19355
 7,1.757888\H,0,-19.271794,2.155844,1.222095\H,0,-19.392394,1.731117,-0
 .478342\H,0,-21.159297,0.028779,0.072396\H,0,-21.03901,0.454162,1.7726
 87\H,0,-21.755268,2.801415,1.235586\H,0,-21.875493,2.376229,-0.463643\
 H,0,-24.132307,2.311279,0.619476\H,0,-23.677131,0.689457,0.079534\H,0,
 -23.555944,1.117591,1.790763\\Version=ES64L-G16RevA.03\State=2-A\HF=-3
 385.6897975\S2=0.812191\S2-1=0.\S2A=0.752418\RMSD=2.154e-09\Dipole=-2.
 1305654,-12.8945905,0.3570403\Quadrupole=104.116248,-166.1165245,62.00
 02765,-79.4114404,13.4803763,16.6247154\PG=C01 [X(C68H83B1F2N4O4)]\\@


 COLLEGE PROFESSOR: SOMEONE WHO TALKS IN OTHER PEOPLE'S SLEEP.
 Job cpu time:       4 days 20 hours 35 minutes 50.2 seconds.
 Elapsed time:       0 days  1 hours 50 minutes 49.3 seconds.
 File lengths (MBytes):  RWF=  14063 Int=      0 D2E=      0 Chk=   1047 Scr=      1
 Normal termination of Gaussian 16 at Fri Nov  7 00:34:23 2025.
