 Entering Gaussian System, Link 0=g16
 Input=M100479012_sp.gjf
 Output=M100479012_sp.log
 Initial command:
 /public/software/gauss/g16/l1.exe "/public/home/baiding/1110_v2_sp/tmp_M100479012_sp_1579049/Gau-38946.inp" -scrdir="/public/home/baiding/1110_v2_sp/tmp_M100479012_sp_1579049/"
 Entering Link 1 = /public/software/gauss/g16/l1.exe PID=     38947.
  
 Copyright (c) 1988,1990,1992,1993,1995,1998,2003,2009,2016,
            Gaussian, Inc.  All Rights Reserved.
  
 This is part of the Gaussian(R) 16 program.  It is based on
 the Gaussian(R) 09 system (copyright 2009, Gaussian, Inc.),
 the Gaussian(R) 03 system (copyright 2003, Gaussian, Inc.),
 the Gaussian(R) 98 system (copyright 1998, Gaussian, Inc.),
 the Gaussian(R) 94 system (copyright 1995, Gaussian, Inc.),
 the Gaussian 92(TM) system (copyright 1992, Gaussian, Inc.),
 the Gaussian 90(TM) system (copyright 1990, Gaussian, Inc.),
 the Gaussian 88(TM) system (copyright 1988, Gaussian, Inc.),
 the Gaussian 86(TM) system (copyright 1986, Carnegie Mellon
 University), and the Gaussian 82(TM) system (copyright 1983,
 Carnegie Mellon University). Gaussian is a federally registered
 trademark of Gaussian, Inc.
  
 This software contains proprietary and confidential information,
 including trade secrets, belonging to Gaussian, Inc.
  
 This software is provided under written license and may be
 used, copied, transmitted, or stored only in accord with that
 written license.
  
 The following legend is applicable only to US Government
 contracts under FAR:
  
                    RESTRICTED RIGHTS LEGEND
  
 Use, reproduction and disclosure by the US Government is
 subject to restrictions as set forth in subparagraphs (a)
 and (c) of the Commercial Computer Software - Restricted
 Rights clause in FAR 52.227-19.
  
 Gaussian, Inc.
 340 Quinnipiac St., Bldg. 40, Wallingford CT 06492
  
  
 ---------------------------------------------------------------
 Warning -- This program may not be used in any manner that
 competes with the business of Gaussian, Inc. or will provide
 assistance to any competitor of Gaussian, Inc.  The licensee
 of this program is prohibited from giving any competitor of
 Gaussian, Inc. access to this program.  By using this program,
 the user acknowledges that Gaussian, Inc. is engaged in the
 business of creating and licensing software in the field of
 computational chemistry and represents and warrants to the
 licensee that it is not a competitor of Gaussian, Inc. and that
 it will not use this program in any manner prohibited above.
 ---------------------------------------------------------------
  

 Cite this work as:
 Gaussian 16, Revision A.03,
 M. J. Frisch, G. W. Trucks, H. B. Schlegel, G. E. Scuseria, 
 M. A. Robb, J. R. Cheeseman, G. Scalmani, V. Barone, 
 G. A. Petersson, H. Nakatsuji, X. Li, M. Caricato, A. V. Marenich, 
 J. Bloino, B. G. Janesko, R. Gomperts, B. Mennucci, H. P. Hratchian, 
 J. V. Ortiz, A. F. Izmaylov, J. L. Sonnenberg, D. Williams-Young, 
 F. Ding, F. Lipparini, F. Egidi, J. Goings, B. Peng, A. Petrone, 
 T. Henderson, D. Ranasinghe, V. G. Zakrzewski, J. Gao, N. Rega, 
 G. Zheng, W. Liang, M. Hada, M. Ehara, K. Toyota, R. Fukuda, 
 J. Hasegawa, M. Ishida, T. Nakajima, Y. Honda, O. Kitao, H. Nakai, 
 T. Vreven, K. Throssell, J. A. Montgomery, Jr., J. E. Peralta, 
 F. Ogliaro, M. J. Bearpark, J. J. Heyd, E. N. Brothers, K. N. Kudin, 
 V. N. Staroverov, T. A. Keith, R. Kobayashi, J. Normand, 
 K. Raghavachari, A. P. Rendell, J. C. Burant, S. S. Iyengar, 
 J. Tomasi, M. Cossi, J. M. Millam, M. Klene, C. Adamo, R. Cammi, 
 J. W. Ochterski, R. L. Martin, K. Morokuma, O. Farkas, 
 J. B. Foresman, and D. J. Fox, Gaussian, Inc., Wallingford CT, 2016.
 
 ******************************************
 Gaussian 16:  ES64L-G16RevA.03 25-Dec-2016
                10-Nov-2025 
 ******************************************
 %nprocshared=64
 Will use up to   64 processors via shared memory.
 %mem=230GB
 %chk=M100479012_sp.chk
 ----------------------------------------------
 #p M062X/DEF2TZVPP scrf=(solvent=water) em=GD3
 ----------------------------------------------
 1/38=1,172=1/1;
 2/12=2,17=6,18=5,40=1/2;
 3/5=44,7=202,11=2,25=1,30=1,70=2201,72=1,74=-55,124=31/1,2,3;
 4//1;
 5/5=2,38=5,53=1/2;
 6/7=2,8=2,9=2,10=2,28=1/1;
 99/5=1,9=1/99;
 Leave Link    1 at Mon Nov 10 14:05:14 2025, MaxMem= 30870077440 cpu:              11.6 elap:               0.2
 (Enter /public/software/gauss/g16/l101.exe)
 ---------------------------------
 Energy calculation for M100479012
 ---------------------------------
 Symbolic Z-matrix:
 Charge =  0 Multiplicity = 1
 C                    -11.4219  -0.14309  -4.36208 
 C                    -10.09331   0.47063  -3.87268 
 C                    -8.85787  -0.37968  -4.25615 
 C                    -8.79823  -1.76768  -3.57454 
 C                    -8.59644  -1.6875   -2.04318 
 C                    -8.49306  -3.10044  -1.43113 
 C                    -8.32015  -3.18143   0.12015 
 C                    -9.39523  -2.37371   0.92134 
 C                    -10.88319  -2.77973   0.70312 
 C                    -11.44448  -3.6279    1.87173 
 C                    -12.9439  -4.01055   1.75093 
 C                    -13.25347  -5.2652    0.893 
 C                    -13.17595  -5.05109  -0.63442 
 C                    -6.92739  -2.71932   0.58413 
 C                    -6.36454  -1.45259   0.54049 
 C                    -5.0611   -1.25295   1.05881 
 C                    -4.3514   -2.33501   1.63164 
 C                    -4.92664  -3.5999    1.69918 
 C                    -6.21115  -3.78813   1.17955 
 C                    -7.04347  -4.98972   1.13993 
 C                    -8.27544  -4.6626    0.52066 
 C                    -9.22201  -5.64878   0.30978 
 C                    -8.94936  -6.94032   0.77393 
 C                    -7.7467   -7.27047   1.40604 
 C                    -6.77735  -6.29091   1.58528 
 N                    -9.94945  -7.96751   0.59191 
 O                    -11.07073  -7.63668   0.0353 
 O                    -9.67898  -9.16239   0.99318 
 C                    -4.4687    0.03726   1.00427 
 C                    -3.96655   1.14317   0.94944 
 C                    -3.38082   2.43376   0.87722 
 C                    -2.0642    2.65519   1.33687 
 C                    -1.48618   3.91389   1.25396 
 C                    -2.2056    5.00017   0.71277 
 C                    -3.5294    4.7807    0.26832 
 C                    -4.10572   3.52183   0.34128 
 C                    -1.65666   6.35076   0.63863 
 C                    -2.43725   7.53357   0.73691 
 C                    -1.60109   8.64261   0.62976 
 C                    -0.26939   8.11427   0.44538 
 N                     0.85699   8.77857   0.24576 
 C                     2.00262   8.15973   0.01248 
 C                     3.27614   8.74569  -0.32825 
 C                     4.12483   7.6788   -0.61158 
 C                     3.41566   6.46151  -0.42016 
 C                     4.0048    5.137    -0.58372 
 C                     3.6121    4.02781   0.19491 
 C                     4.23682   2.79891   0.03746 
 C                     5.27261   2.63165  -0.90773 
 C                     5.66758   3.74159  -1.68791 
 C                     5.04869   4.97103  -1.52188 
 C                     5.91116   1.37459  -1.06805 
 C                     6.46371   0.30045  -1.20609 
 C                     7.10994  -0.95458  -1.36536 
 C                     8.10272  -1.11569  -2.36259 
 C                     8.75036  -2.33607  -2.52951 
 C                     8.40553  -3.40357  -1.694 
 C                     8.93308  -4.76767  -1.62415 
 C                     8.25784  -5.46099  -0.58519 
 C                     8.62838  -6.75612  -0.26867 
 C                     9.64685  -7.35451  -1.02003 
 C                     10.30128  -6.69122  -2.0613 
 C                     9.94748  -5.38245  -2.36777 
 N                     10.04057  -8.70995  -0.70023 
 O                     9.43146  -9.30575   0.2698 
 O                     10.97816  -9.25446  -1.40008 
 C                     7.18575  -4.57303   0.05624 
 C                     7.37374  -4.41105   1.58972 
 C                     8.76032  -3.87659   2.00726 
 C                     8.88045  -3.66579   3.53549 
 C                     8.8673   -4.98095   4.34597 
 C                     9.03468  -4.74012   5.86223 
 C                     9.02505  -6.05678   6.666 
 C                     5.73226  -5.05657  -0.29075 
 C                     5.3281   -6.4706    0.2189 
 C                     5.3683   -7.56326  -0.87929 
 C                     4.23465  -7.41111  -1.91758 
 C                     4.25462  -8.51021  -3.00679 
 C                     5.47168  -8.40294  -3.95012 
 C                     7.4132   -3.2549   -0.69615 
 C                     6.76366  -2.04326  -0.52818 
 N                     2.1259    6.75206  -0.03526 
 B                     0.92041   5.79907   0.24345 
 F                     0.72354   4.90148  -0.81181 
 F                     1.18467   5.06916   1.45245 
 N                    -0.33593   6.70053   0.46925 
 C                     3.60316   10.17079  -0.37307 
 C                     2.88913   11.1188   0.38964 
 C                     3.23551   12.46871   0.34305 
 C                     4.29728   12.89958  -0.45831 
 C                     5.01537   11.96821  -1.2167 
 C                     4.67445   10.6183  -1.17542 
 C                    -1.99862   10.05086   0.69588 
 C                    -1.15829   11.08634   0.23398 
 C                    -1.57358   12.41568   0.29443 
 C                    -2.82954   12.74325   0.81406 
 C                    -3.67211   11.72651   1.27684 
 C                    -3.2639    10.39627   1.21935 
 H                    -11.4023  -0.2799   -5.45044 
 H                    -11.60348  -1.11901  -3.89865 
 H                    -12.2671   0.5103   -4.11504 
 H                    -9.97887   1.46966  -4.31368 
 H                    -10.1281   0.60418  -2.78442 
 H                    -8.85642  -0.51741  -5.3464 
 H                    -7.94501   0.17516  -3.99846 
 H                    -9.7162   -2.32943  -3.78986 
 H                    -7.96419  -2.33695  -4.00748 
 H                    -7.68182  -1.11898  -1.83926 
 H                    -9.43499  -1.14702  -1.59059 
 H                    -9.40188  -3.65714  -1.69218 
 H                    -7.64792  -3.63083  -1.88742 
 H                    -9.1488   -2.46245   1.98643 
 H                    -9.25976  -1.32078   0.65136 
 H                    -11.48889  -1.86751   0.6258 
 H                    -10.9954  -3.31211  -0.24416 
 H                    -10.84941  -4.54156   1.98598 
 H                    -11.30864  -3.04241   2.79192 
 H                    -13.3193  -4.20448   2.76502 
 H                    -13.51167  -3.15296   1.36219 
 H                    -12.5656  -6.07429   1.16919 
 H                    -14.26835  -5.60525   1.14056 
 H                    -12.15563  -4.82331  -0.95517 
 H                    -13.49944  -5.95563  -1.16399 
 H                    -13.82552  -4.22285  -0.94304 
 H                    -6.89902  -0.60891   0.12507 
 H                    -3.35708  -2.1644    2.02448 
 H                    -4.38709  -4.42331   2.15199 
 H                    -10.15314  -5.45795  -0.19947 
 H                    -7.59283  -8.28596   1.73863 
 H                    -5.8348   -6.53436   2.05958 
 H                    -1.50567   1.83124   1.76305 
 H                    -0.48432   4.07417   1.62184 
 H                    -4.09573   5.59749  -0.16106 
 H                    -5.1149    3.36437  -0.0176 
 H                    -3.50307   7.54428   0.88493 
 H                     5.16767   7.74165  -0.87175 
 H                     2.83323   4.14874   0.93234 
 H                     3.93604   1.95748   0.64905 
 H                     6.45697   3.62428  -2.41941 
 H                     5.35581   5.80643  -2.13838 
 H                     8.35392  -0.27331  -2.99462 
 H                     9.51056  -2.45167  -3.29301 
 H                     8.16791  -7.31482   0.53176 
 H                     11.07948  -7.20836  -2.60204 
 H                     10.45636  -4.84947  -3.16122 
 H                     6.59806  -3.72062   1.94706 
 H                     7.19411  -5.38227   2.06247 
 H                     9.539    -4.57595   1.67812 
 H                     8.93888  -2.921     1.49956 
 H                     9.81895  -3.13519   3.7471 
 H                     8.05887  -3.02047   3.87726 
 H                     7.92547  -5.51753   4.17332 
 H                     9.68213  -5.62865   3.99224 
 H                     9.97886  -4.20753   6.03904 
 H                     8.22335  -4.08862   6.21399 
 H                     9.84233  -6.71223   6.34111 
 H                     9.145    -5.86674   7.73904 
 H                     8.07927  -6.59191   6.51682 
 H                     5.05794  -4.30388   0.13535 
 H                     5.6159   -5.01162  -1.37911 
 H                     5.97428  -6.76869   1.05194 
 H                     4.30656  -6.42373   0.61817 
 H                     6.34228  -7.53679  -1.3791 
 H                     5.27184  -8.54939  -0.40369 
 H                     3.27246  -7.44577  -1.3878 
 H                     4.30312  -6.4288   -2.40434 
 H                     4.24943  -9.49592  -2.52184 
 H                     3.33512  -8.43792  -3.60236 
 H                     5.43608  -9.17984  -4.72305 
 H                     5.48289  -7.42569  -4.44855 
 H                     6.41187  -8.51609  -3.39966 
 H                     6.00153  -1.91283   0.2305 
 H                     2.07326   10.79035   1.01736 
 H                     2.68031   13.18415   0.93835 
 H                     4.56395   13.94935  -0.49119 
 H                     5.8368    12.2956  -1.84309 
 H                     5.2249    9.90595  -1.77829 
 H                    -0.18671   10.83813  -0.16738 
 H                    -0.91607   13.19717  -0.06837 
 H                    -3.14889   13.77776   0.85895 
 H                    -4.64496   11.97155   1.68657 
 H                    -3.92087   9.6215    1.59524 
 
 ITRead=  0  0  0  0  0  0  0  0  0  0  0  0  0  0  0  0  0  0  0  0
 ITRead=  0  0  0  0  0  0  0  0  0  0  0  0  0  0  0  0  0  0  0  0
 ITRead=  0  0  0  0  0  0  0  0  0  0  0  0  0  0  0  0  0  0  0  0
 ITRead=  0  0  0  0  0  0  0  0  0  0  0  0  0  0  0  0  0  0  0  0
 ITRead=  0  0  0  0  0  0  0  0  0  0  0  0  0  0  0  0  0  0  0  0
 ITRead=  0  0  0  0  0  0  0  0  0  0  0  0  0  0  0  0  0  0  0  0
 ITRead=  0  0  0  0  0  0  0  0  0  0  0  0  0  0  0  0  0  0  0  0
 ITRead=  0  0  0  0  0  0  0  0  0  0  0  0  0  0  0  0  0  0  0  0
 ITRead=  0  0  0  0  0  0  0  0  0  0  0  0  0  0  0  0  0  0  0  0
 ITRead=  0  0
 MicOpt= -1 -1 -1 -1 -1 -1 -1 -1 -1 -1 -1 -1 -1 -1 -1 -1 -1 -1 -1 -1
 MicOpt= -1 -1 -1 -1 -1 -1 -1 -1 -1 -1 -1 -1 -1 -1 -1 -1 -1 -1 -1 -1
 MicOpt= -1 -1 -1 -1 -1 -1 -1 -1 -1 -1 -1 -1 -1 -1 -1 -1 -1 -1 -1 -1
 MicOpt= -1 -1 -1 -1 -1 -1 -1 -1 -1 -1 -1 -1 -1 -1 -1 -1 -1 -1 -1 -1
 MicOpt= -1 -1 -1 -1 -1 -1 -1 -1 -1 -1 -1 -1 -1 -1 -1 -1 -1 -1 -1 -1
 MicOpt= -1 -1 -1 -1 -1 -1 -1 -1 -1 -1 -1 -1 -1 -1 -1 -1 -1 -1 -1 -1
 MicOpt= -1 -1 -1 -1 -1 -1 -1 -1 -1 -1 -1 -1 -1 -1 -1 -1 -1 -1 -1 -1
 MicOpt= -1 -1 -1 -1 -1 -1 -1 -1 -1 -1 -1 -1 -1 -1 -1 -1 -1 -1 -1 -1
 MicOpt= -1 -1 -1 -1 -1 -1 -1 -1 -1 -1 -1 -1 -1 -1 -1 -1 -1 -1 -1 -1
 MicOpt= -1 -1
 NAtoms=    182 NQM=      182 NQMF=       0 NMMI=      0 NMMIF=      0
                NMic=       0 NMicF=      0.
                    Isotopes and Nuclear Properties:
 (Nuclear quadrupole moments (NQMom) in fm**2, nuclear magnetic moments (NMagM)
  in nuclear magnetons)

  Atom         1           2           3           4           5           6           7           8           9          10
 IAtWgt=          12          12          12          12          12          12          12          12          12          12
 AtmWgt=  12.0000000  12.0000000  12.0000000  12.0000000  12.0000000  12.0000000  12.0000000  12.0000000  12.0000000  12.0000000
 NucSpn=           0           0           0           0           0           0           0           0           0           0
 AtZEff=  -0.0000000  -0.0000000  -0.0000000  -0.0000000  -0.0000000  -0.0000000  -0.0000000  -0.0000000  -0.0000000  -0.0000000
 NQMom=    0.0000000   0.0000000   0.0000000   0.0000000   0.0000000   0.0000000   0.0000000   0.0000000   0.0000000   0.0000000
 NMagM=    0.0000000   0.0000000   0.0000000   0.0000000   0.0000000   0.0000000   0.0000000   0.0000000   0.0000000   0.0000000
 AtZNuc=   6.0000000   6.0000000   6.0000000   6.0000000   6.0000000   6.0000000   6.0000000   6.0000000   6.0000000   6.0000000

  Atom        11          12          13          14          15          16          17          18          19          20
 IAtWgt=          12          12          12          12          12          12          12          12          12          12
 AtmWgt=  12.0000000  12.0000000  12.0000000  12.0000000  12.0000000  12.0000000  12.0000000  12.0000000  12.0000000  12.0000000
 NucSpn=           0           0           0           0           0           0           0           0           0           0
 AtZEff=  -0.0000000  -0.0000000  -0.0000000  -0.0000000  -0.0000000  -0.0000000  -0.0000000  -0.0000000  -0.0000000  -0.0000000
 NQMom=    0.0000000   0.0000000   0.0000000   0.0000000   0.0000000   0.0000000   0.0000000   0.0000000   0.0000000   0.0000000
 NMagM=    0.0000000   0.0000000   0.0000000   0.0000000   0.0000000   0.0000000   0.0000000   0.0000000   0.0000000   0.0000000
 AtZNuc=   6.0000000   6.0000000   6.0000000   6.0000000   6.0000000   6.0000000   6.0000000   6.0000000   6.0000000   6.0000000

  Atom        21          22          23          24          25          26          27          28          29          30
 IAtWgt=          12          12          12          12          12          14          16          16          12          12
 AtmWgt=  12.0000000  12.0000000  12.0000000  12.0000000  12.0000000  14.0030740  15.9949146  15.9949146  12.0000000  12.0000000
 NucSpn=           0           0           0           0           0           2           0           0           0           0
 AtZEff=  -0.0000000  -0.0000000  -0.0000000  -0.0000000  -0.0000000  -0.0000000  -0.0000000  -0.0000000  -0.0000000  -0.0000000
 NQMom=    0.0000000   0.0000000   0.0000000   0.0000000   0.0000000   2.0440000   0.0000000   0.0000000   0.0000000   0.0000000
 NMagM=    0.0000000   0.0000000   0.0000000   0.0000000   0.0000000   0.4037610   0.0000000   0.0000000   0.0000000   0.0000000
 AtZNuc=   6.0000000   6.0000000   6.0000000   6.0000000   6.0000000   7.0000000   8.0000000   8.0000000   6.0000000   6.0000000

  Atom        31          32          33          34          35          36          37          38          39          40
 IAtWgt=          12          12          12          12          12          12          12          12          12          12
 AtmWgt=  12.0000000  12.0000000  12.0000000  12.0000000  12.0000000  12.0000000  12.0000000  12.0000000  12.0000000  12.0000000
 NucSpn=           0           0           0           0           0           0           0           0           0           0
 AtZEff=  -0.0000000  -0.0000000  -0.0000000  -0.0000000  -0.0000000  -0.0000000  -0.0000000  -0.0000000  -0.0000000  -0.0000000
 NQMom=    0.0000000   0.0000000   0.0000000   0.0000000   0.0000000   0.0000000   0.0000000   0.0000000   0.0000000   0.0000000
 NMagM=    0.0000000   0.0000000   0.0000000   0.0000000   0.0000000   0.0000000   0.0000000   0.0000000   0.0000000   0.0000000
 AtZNuc=   6.0000000   6.0000000   6.0000000   6.0000000   6.0000000   6.0000000   6.0000000   6.0000000   6.0000000   6.0000000

  Atom        41          42          43          44          45          46          47          48          49          50
 IAtWgt=          14          12          12          12          12          12          12          12          12          12
 AtmWgt=  14.0030740  12.0000000  12.0000000  12.0000000  12.0000000  12.0000000  12.0000000  12.0000000  12.0000000  12.0000000
 NucSpn=           2           0           0           0           0           0           0           0           0           0
 AtZEff=  -0.0000000  -0.0000000  -0.0000000  -0.0000000  -0.0000000  -0.0000000  -0.0000000  -0.0000000  -0.0000000  -0.0000000
 NQMom=    2.0440000   0.0000000   0.0000000   0.0000000   0.0000000   0.0000000   0.0000000   0.0000000   0.0000000   0.0000000
 NMagM=    0.4037610   0.0000000   0.0000000   0.0000000   0.0000000   0.0000000   0.0000000   0.0000000   0.0000000   0.0000000
 AtZNuc=   7.0000000   6.0000000   6.0000000   6.0000000   6.0000000   6.0000000   6.0000000   6.0000000   6.0000000   6.0000000

  Atom        51          52          53          54          55          56          57          58          59          60
 IAtWgt=          12          12          12          12          12          12          12          12          12          12
 AtmWgt=  12.0000000  12.0000000  12.0000000  12.0000000  12.0000000  12.0000000  12.0000000  12.0000000  12.0000000  12.0000000
 NucSpn=           0           0           0           0           0           0           0           0           0           0
 AtZEff=  -0.0000000  -0.0000000  -0.0000000  -0.0000000  -0.0000000  -0.0000000  -0.0000000  -0.0000000  -0.0000000  -0.0000000
 NQMom=    0.0000000   0.0000000   0.0000000   0.0000000   0.0000000   0.0000000   0.0000000   0.0000000   0.0000000   0.0000000
 NMagM=    0.0000000   0.0000000   0.0000000   0.0000000   0.0000000   0.0000000   0.0000000   0.0000000   0.0000000   0.0000000
 AtZNuc=   6.0000000   6.0000000   6.0000000   6.0000000   6.0000000   6.0000000   6.0000000   6.0000000   6.0000000   6.0000000

  Atom        61          62          63          64          65          66          67          68          69          70
 IAtWgt=          12          12          12          14          16          16          12          12          12          12
 AtmWgt=  12.0000000  12.0000000  12.0000000  14.0030740  15.9949146  15.9949146  12.0000000  12.0000000  12.0000000  12.0000000
 NucSpn=           0           0           0           2           0           0           0           0           0           0
 AtZEff=  -0.0000000  -0.0000000  -0.0000000  -0.0000000  -0.0000000  -0.0000000  -0.0000000  -0.0000000  -0.0000000  -0.0000000
 NQMom=    0.0000000   0.0000000   0.0000000   2.0440000   0.0000000   0.0000000   0.0000000   0.0000000   0.0000000   0.0000000
 NMagM=    0.0000000   0.0000000   0.0000000   0.4037610   0.0000000   0.0000000   0.0000000   0.0000000   0.0000000   0.0000000
 AtZNuc=   6.0000000   6.0000000   6.0000000   7.0000000   8.0000000   8.0000000   6.0000000   6.0000000   6.0000000   6.0000000

  Atom        71          72          73          74          75          76          77          78          79          80
 IAtWgt=          12          12          12          12          12          12          12          12          12          12
 AtmWgt=  12.0000000  12.0000000  12.0000000  12.0000000  12.0000000  12.0000000  12.0000000  12.0000000  12.0000000  12.0000000
 NucSpn=           0           0           0           0           0           0           0           0           0           0
 AtZEff=  -0.0000000  -0.0000000  -0.0000000  -0.0000000  -0.0000000  -0.0000000  -0.0000000  -0.0000000  -0.0000000  -0.0000000
 NQMom=    0.0000000   0.0000000   0.0000000   0.0000000   0.0000000   0.0000000   0.0000000   0.0000000   0.0000000   0.0000000
 NMagM=    0.0000000   0.0000000   0.0000000   0.0000000   0.0000000   0.0000000   0.0000000   0.0000000   0.0000000   0.0000000
 AtZNuc=   6.0000000   6.0000000   6.0000000   6.0000000   6.0000000   6.0000000   6.0000000   6.0000000   6.0000000   6.0000000

  Atom        81          82          83          84          85          86          87          88          89          90
 IAtWgt=          12          14          11          19          19          14          12          12          12          12
 AtmWgt=  12.0000000  14.0030740  11.0093053  18.9984033  18.9984033  14.0030740  12.0000000  12.0000000  12.0000000  12.0000000
 NucSpn=           0           2           3           1           1           2           0           0           0           0
 AtZEff=  -0.0000000  -0.0000000  -0.0000000  -0.0000000  -0.0000000  -0.0000000  -0.0000000  -0.0000000  -0.0000000  -0.0000000
 NQMom=    0.0000000   2.0440000   4.0590000   0.0000000   0.0000000   2.0440000   0.0000000   0.0000000   0.0000000   0.0000000
 NMagM=    0.0000000   0.4037610   2.6886370   2.6288670   2.6288670   0.4037610   0.0000000   0.0000000   0.0000000   0.0000000
 AtZNuc=   6.0000000   7.0000000   5.0000000   9.0000000   9.0000000   7.0000000   6.0000000   6.0000000   6.0000000   6.0000000

  Atom        91          92          93          94          95          96          97          98          99         100
 IAtWgt=          12          12          12          12          12          12          12          12           1           1
 AtmWgt=  12.0000000  12.0000000  12.0000000  12.0000000  12.0000000  12.0000000  12.0000000  12.0000000   1.0078250   1.0078250
 NucSpn=           0           0           0           0           0           0           0           0           1           1
 AtZEff=  -0.0000000  -0.0000000  -0.0000000  -0.0000000  -0.0000000  -0.0000000  -0.0000000  -0.0000000  -0.0000000  -0.0000000
 NQMom=    0.0000000   0.0000000   0.0000000   0.0000000   0.0000000   0.0000000   0.0000000   0.0000000   0.0000000   0.0000000
 NMagM=    0.0000000   0.0000000   0.0000000   0.0000000   0.0000000   0.0000000   0.0000000   0.0000000   2.7928460   2.7928460
 AtZNuc=   6.0000000   6.0000000   6.0000000   6.0000000   6.0000000   6.0000000   6.0000000   6.0000000   1.0000000   1.0000000

  Atom       101         102         103         104         105         106         107         108         109         110
 IAtWgt=           1           1           1           1           1           1           1           1           1           1
 AtmWgt=   1.0078250   1.0078250   1.0078250   1.0078250   1.0078250   1.0078250   1.0078250   1.0078250   1.0078250   1.0078250
 NucSpn=           1           1           1           1           1           1           1           1           1           1
 AtZEff=  -0.0000000  -0.0000000  -0.0000000  -0.0000000  -0.0000000  -0.0000000  -0.0000000  -0.0000000  -0.0000000  -0.0000000
 NQMom=    0.0000000   0.0000000   0.0000000   0.0000000   0.0000000   0.0000000   0.0000000   0.0000000   0.0000000   0.0000000
 NMagM=    2.7928460   2.7928460   2.7928460   2.7928460   2.7928460   2.7928460   2.7928460   2.7928460   2.7928460   2.7928460
 AtZNuc=   1.0000000   1.0000000   1.0000000   1.0000000   1.0000000   1.0000000   1.0000000   1.0000000   1.0000000   1.0000000

  Atom       111         112         113         114         115         116         117         118         119         120
 IAtWgt=           1           1           1           1           1           1           1           1           1           1
 AtmWgt=   1.0078250   1.0078250   1.0078250   1.0078250   1.0078250   1.0078250   1.0078250   1.0078250   1.0078250   1.0078250
 NucSpn=           1           1           1           1           1           1           1           1           1           1
 AtZEff=  -0.0000000  -0.0000000  -0.0000000  -0.0000000  -0.0000000  -0.0000000  -0.0000000  -0.0000000  -0.0000000  -0.0000000
 NQMom=    0.0000000   0.0000000   0.0000000   0.0000000   0.0000000   0.0000000   0.0000000   0.0000000   0.0000000   0.0000000
 NMagM=    2.7928460   2.7928460   2.7928460   2.7928460   2.7928460   2.7928460   2.7928460   2.7928460   2.7928460   2.7928460
 AtZNuc=   1.0000000   1.0000000   1.0000000   1.0000000   1.0000000   1.0000000   1.0000000   1.0000000   1.0000000   1.0000000

  Atom       121         122         123         124         125         126         127         128         129         130
 IAtWgt=           1           1           1           1           1           1           1           1           1           1
 AtmWgt=   1.0078250   1.0078250   1.0078250   1.0078250   1.0078250   1.0078250   1.0078250   1.0078250   1.0078250   1.0078250
 NucSpn=           1           1           1           1           1           1           1           1           1           1
 AtZEff=  -0.0000000  -0.0000000  -0.0000000  -0.0000000  -0.0000000  -0.0000000  -0.0000000  -0.0000000  -0.0000000  -0.0000000
 NQMom=    0.0000000   0.0000000   0.0000000   0.0000000   0.0000000   0.0000000   0.0000000   0.0000000   0.0000000   0.0000000
 NMagM=    2.7928460   2.7928460   2.7928460   2.7928460   2.7928460   2.7928460   2.7928460   2.7928460   2.7928460   2.7928460
 AtZNuc=   1.0000000   1.0000000   1.0000000   1.0000000   1.0000000   1.0000000   1.0000000   1.0000000   1.0000000   1.0000000

  Atom       131         132         133         134         135         136         137         138         139         140
 IAtWgt=           1           1           1           1           1           1           1           1           1           1
 AtmWgt=   1.0078250   1.0078250   1.0078250   1.0078250   1.0078250   1.0078250   1.0078250   1.0078250   1.0078250   1.0078250
 NucSpn=           1           1           1           1           1           1           1           1           1           1
 AtZEff=  -0.0000000  -0.0000000  -0.0000000  -0.0000000  -0.0000000  -0.0000000  -0.0000000  -0.0000000  -0.0000000  -0.0000000
 NQMom=    0.0000000   0.0000000   0.0000000   0.0000000   0.0000000   0.0000000   0.0000000   0.0000000   0.0000000   0.0000000
 NMagM=    2.7928460   2.7928460   2.7928460   2.7928460   2.7928460   2.7928460   2.7928460   2.7928460   2.7928460   2.7928460
 AtZNuc=   1.0000000   1.0000000   1.0000000   1.0000000   1.0000000   1.0000000   1.0000000   1.0000000   1.0000000   1.0000000

  Atom       141         142         143         144         145         146         147         148         149         150
 IAtWgt=           1           1           1           1           1           1           1           1           1           1
 AtmWgt=   1.0078250   1.0078250   1.0078250   1.0078250   1.0078250   1.0078250   1.0078250   1.0078250   1.0078250   1.0078250
 NucSpn=           1           1           1           1           1           1           1           1           1           1
 AtZEff=  -0.0000000  -0.0000000  -0.0000000  -0.0000000  -0.0000000  -0.0000000  -0.0000000  -0.0000000  -0.0000000  -0.0000000
 NQMom=    0.0000000   0.0000000   0.0000000   0.0000000   0.0000000   0.0000000   0.0000000   0.0000000   0.0000000   0.0000000
 NMagM=    2.7928460   2.7928460   2.7928460   2.7928460   2.7928460   2.7928460   2.7928460   2.7928460   2.7928460   2.7928460
 AtZNuc=   1.0000000   1.0000000   1.0000000   1.0000000   1.0000000   1.0000000   1.0000000   1.0000000   1.0000000   1.0000000

  Atom       151         152         153         154         155         156         157         158         159         160
 IAtWgt=           1           1           1           1           1           1           1           1           1           1
 AtmWgt=   1.0078250   1.0078250   1.0078250   1.0078250   1.0078250   1.0078250   1.0078250   1.0078250   1.0078250   1.0078250
 NucSpn=           1           1           1           1           1           1           1           1           1           1
 AtZEff=  -0.0000000  -0.0000000  -0.0000000  -0.0000000  -0.0000000  -0.0000000  -0.0000000  -0.0000000  -0.0000000  -0.0000000
 NQMom=    0.0000000   0.0000000   0.0000000   0.0000000   0.0000000   0.0000000   0.0000000   0.0000000   0.0000000   0.0000000
 NMagM=    2.7928460   2.7928460   2.7928460   2.7928460   2.7928460   2.7928460   2.7928460   2.7928460   2.7928460   2.7928460
 AtZNuc=   1.0000000   1.0000000   1.0000000   1.0000000   1.0000000   1.0000000   1.0000000   1.0000000   1.0000000   1.0000000

  Atom       161         162         163         164         165         166         167         168         169         170
 IAtWgt=           1           1           1           1           1           1           1           1           1           1
 AtmWgt=   1.0078250   1.0078250   1.0078250   1.0078250   1.0078250   1.0078250   1.0078250   1.0078250   1.0078250   1.0078250
 NucSpn=           1           1           1           1           1           1           1           1           1           1
 AtZEff=  -0.0000000  -0.0000000  -0.0000000  -0.0000000  -0.0000000  -0.0000000  -0.0000000  -0.0000000  -0.0000000  -0.0000000
 NQMom=    0.0000000   0.0000000   0.0000000   0.0000000   0.0000000   0.0000000   0.0000000   0.0000000   0.0000000   0.0000000
 NMagM=    2.7928460   2.7928460   2.7928460   2.7928460   2.7928460   2.7928460   2.7928460   2.7928460   2.7928460   2.7928460
 AtZNuc=   1.0000000   1.0000000   1.0000000   1.0000000   1.0000000   1.0000000   1.0000000   1.0000000   1.0000000   1.0000000

  Atom       171         172         173         174         175         176         177         178         179         180
 IAtWgt=           1           1           1           1           1           1           1           1           1           1
 AtmWgt=   1.0078250   1.0078250   1.0078250   1.0078250   1.0078250   1.0078250   1.0078250   1.0078250   1.0078250   1.0078250
 NucSpn=           1           1           1           1           1           1           1           1           1           1
 AtZEff=  -0.0000000  -0.0000000  -0.0000000  -0.0000000  -0.0000000  -0.0000000  -0.0000000  -0.0000000  -0.0000000  -0.0000000
 NQMom=    0.0000000   0.0000000   0.0000000   0.0000000   0.0000000   0.0000000   0.0000000   0.0000000   0.0000000   0.0000000
 NMagM=    2.7928460   2.7928460   2.7928460   2.7928460   2.7928460   2.7928460   2.7928460   2.7928460   2.7928460   2.7928460
 AtZNuc=   1.0000000   1.0000000   1.0000000   1.0000000   1.0000000   1.0000000   1.0000000   1.0000000   1.0000000   1.0000000

  Atom       181         182
 IAtWgt=           1           1
 AtmWgt=   1.0078250   1.0078250
 NucSpn=           1           1
 AtZEff=  -0.0000000  -0.0000000
 NQMom=    0.0000000   0.0000000
 NMagM=    2.7928460   2.7928460
 AtZNuc=   1.0000000   1.0000000
 Leave Link  101 at Mon Nov 10 14:05:15 2025, MaxMem= 30870077440 cpu:               5.5 elap:               0.1
 (Enter /public/software/gauss/g16/l202.exe)
 Stoichiometry    C86H84BF2N5O4
 Framework group  C1[X(C86H84BF2N5O4)]
 Deg. of freedom   540
 Full point group                 C1      NOp   1
 Largest Abelian subgroup         C1      NOp   1
 Largest concise Abelian subgroup C1      NOp   1
                         Standard orientation:                         
 ---------------------------------------------------------------------
 Center     Atomic      Atomic             Coordinates (Angstroms)
 Number     Number       Type             X           Y           Z
 ---------------------------------------------------------------------
      1          6           0      -11.421902   -0.143091   -4.362079
      2          6           0      -10.093306    0.470630   -3.872679
      3          6           0       -8.857870   -0.379677   -4.256147
      4          6           0       -8.798228   -1.767682   -3.574537
      5          6           0       -8.596438   -1.687503   -2.043184
      6          6           0       -8.493065   -3.100436   -1.431134
      7          6           0       -8.320151   -3.181430    0.120154
      8          6           0       -9.395230   -2.373714    0.921343
      9          6           0      -10.883190   -2.779731    0.703121
     10          6           0      -11.444476   -3.627896    1.871733
     11          6           0      -12.943899   -4.010549    1.750929
     12          6           0      -13.253466   -5.265201    0.892998
     13          6           0      -13.175952   -5.051089   -0.634418
     14          6           0       -6.927387   -2.719324    0.584131
     15          6           0       -6.364539   -1.452585    0.540494
     16          6           0       -5.061103   -1.252951    1.058810
     17          6           0       -4.351402   -2.335009    1.631640
     18          6           0       -4.926637   -3.599896    1.699180
     19          6           0       -6.211150   -3.788125    1.179547
     20          6           0       -7.043473   -4.989719    1.139931
     21          6           0       -8.275437   -4.662600    0.520662
     22          6           0       -9.222009   -5.648777    0.309780
     23          6           0       -8.949362   -6.940315    0.773931
     24          6           0       -7.746696   -7.270467    1.406035
     25          6           0       -6.777351   -6.290907    1.585279
     26          7           0       -9.949451   -7.967511    0.591906
     27          8           0      -11.070726   -7.636683    0.035297
     28          8           0       -9.678975   -9.162386    0.993184
     29          6           0       -4.468699    0.037260    1.004269
     30          6           0       -3.966552    1.143168    0.949438
     31          6           0       -3.380816    2.433758    0.877216
     32          6           0       -2.064201    2.655194    1.336874
     33          6           0       -1.486177    3.913889    1.253959
     34          6           0       -2.205598    5.000169    0.712770
     35          6           0       -3.529402    4.780701    0.268321
     36          6           0       -4.105720    3.521833    0.341275
     37          6           0       -1.656661    6.350765    0.638627
     38          6           0       -2.437253    7.533566    0.736910
     39          6           0       -1.601090    8.642607    0.629759
     40          6           0       -0.269387    8.114267    0.445379
     41          7           0        0.856991    8.778568    0.245762
     42          6           0        2.002624    8.159727    0.012483
     43          6           0        3.276141    8.745686   -0.328248
     44          6           0        4.124825    7.678802   -0.611578
     45          6           0        3.415663    6.461506   -0.420164
     46          6           0        4.004801    5.136997   -0.583718
     47          6           0        3.612099    4.027812    0.194912
     48          6           0        4.236816    2.798911    0.037464
     49          6           0        5.272605    2.631653   -0.907725
     50          6           0        5.667582    3.741592   -1.687908
     51          6           0        5.048693    4.971025   -1.521883
     52          6           0        5.911156    1.374592   -1.068055
     53          6           0        6.463714    0.300452   -1.206093
     54          6           0        7.109944   -0.954584   -1.365362
     55          6           0        8.102725   -1.115688   -2.362592
     56          6           0        8.750356   -2.336066   -2.529514
     57          6           0        8.405532   -3.403572   -1.693997
     58          6           0        8.933079   -4.767667   -1.624148
     59          6           0        8.257837   -5.460993   -0.585185
     60          6           0        8.628385   -6.756117   -0.268670
     61          6           0        9.646852   -7.354506   -1.020026
     62          6           0       10.301276   -6.691221   -2.061300
     63          6           0        9.947482   -5.382448   -2.367765
     64          7           0       10.040568   -8.709950   -0.700230
     65          8           0        9.431462   -9.305753    0.269797
     66          8           0       10.978163   -9.254464   -1.400076
     67          6           0        7.185752   -4.573034    0.056240
     68          6           0        7.373744   -4.411054    1.589720
     69          6           0        8.760320   -3.876587    2.007256
     70          6           0        8.880453   -3.665793    3.535487
     71          6           0        8.867302   -4.980953    4.345965
     72          6           0        9.034681   -4.740124    5.862231
     73          6           0        9.025050   -6.056783    6.666001
     74          6           0        5.732257   -5.056567   -0.290751
     75          6           0        5.328099   -6.470598    0.218902
     76          6           0        5.368302   -7.563259   -0.879288
     77          6           0        4.234651   -7.411113   -1.917584
     78          6           0        4.254621   -8.510214   -3.006793
     79          6           0        5.471679   -8.402937   -3.950121
     80          6           0        7.413196   -3.254904   -0.696152
     81          6           0        6.763664   -2.043265   -0.528184
     82          7           0        2.125898    6.752061   -0.035263
     83          5           0        0.920414    5.799070    0.243454
     84          9           0        0.723540    4.901476   -0.811813
     85          9           0        1.184670    5.069158    1.452448
     86          7           0       -0.335931    6.700530    0.469245
     87          6           0        3.603161   10.170791   -0.373072
     88          6           0        2.889126   11.118801    0.389636
     89          6           0        3.235510   12.468709    0.343050
     90          6           0        4.297280   12.899579   -0.458311
     91          6           0        5.015369   11.968205   -1.216697
     92          6           0        4.674449   10.618303   -1.175417
     93          6           0       -1.998619   10.050859    0.695875
     94          6           0       -1.158293   11.086344    0.233979
     95          6           0       -1.573579   12.415685    0.294428
     96          6           0       -2.829538   12.743252    0.814058
     97          6           0       -3.672114   11.726506    1.276838
     98          6           0       -3.263904   10.396272    1.219349
     99          1           0      -11.402302   -0.279901   -5.450440
    100          1           0      -11.603481   -1.119012   -3.898646
    101          1           0      -12.267098    0.510295   -4.115040
    102          1           0       -9.978874    1.469660   -4.313677
    103          1           0      -10.128103    0.604176   -2.784423
    104          1           0       -8.856418   -0.517413   -5.346399
    105          1           0       -7.945006    0.175156   -3.998463
    106          1           0       -9.716196   -2.329431   -3.789856
    107          1           0       -7.964187   -2.336946   -4.007480
    108          1           0       -7.681822   -1.118977   -1.839261
    109          1           0       -9.434985   -1.147024   -1.590588
    110          1           0       -9.401882   -3.657143   -1.692184
    111          1           0       -7.647919   -3.630830   -1.887420
    112          1           0       -9.148799   -2.462449    1.986431
    113          1           0       -9.259757   -1.320784    0.651357
    114          1           0      -11.488895   -1.867513    0.625800
    115          1           0      -10.995403   -3.312113   -0.244157
    116          1           0      -10.849413   -4.541557    1.985984
    117          1           0      -11.308640   -3.042410    2.791920
    118          1           0      -13.319295   -4.204478    2.765015
    119          1           0      -13.511669   -3.152957    1.362194
    120          1           0      -12.565595   -6.074293    1.169187
    121          1           0      -14.268349   -5.605252    1.140559
    122          1           0      -12.155629   -4.823306   -0.955165
    123          1           0      -13.499441   -5.955630   -1.163992
    124          1           0      -13.825522   -4.222851   -0.943043
    125          1           0       -6.899023   -0.608909    0.125069
    126          1           0       -3.357083   -2.164404    2.024476
    127          1           0       -4.387090   -4.423306    2.151989
    128          1           0      -10.153141   -5.457952   -0.199474
    129          1           0       -7.592831   -8.285959    1.738632
    130          1           0       -5.834804   -6.534360    2.059577
    131          1           0       -1.505669    1.831242    1.763048
    132          1           0       -0.484316    4.074172    1.621838
    133          1           0       -4.095732    5.597485   -0.161060
    134          1           0       -5.114898    3.364370   -0.017604
    135          1           0       -3.503071    7.544279    0.884931
    136          1           0        5.167666    7.741649   -0.871745
    137          1           0        2.833227    4.148737    0.932337
    138          1           0        3.936038    1.957482    0.649052
    139          1           0        6.456967    3.624284   -2.419410
    140          1           0        5.355809    5.806431   -2.138382
    141          1           0        8.353922   -0.273310   -2.994623
    142          1           0        9.510562   -2.451673   -3.293008
    143          1           0        8.167910   -7.314822    0.531757
    144          1           0       11.079484   -7.208357   -2.602039
    145          1           0       10.456363   -4.849471   -3.161216
    146          1           0        6.598056   -3.720620    1.947062
    147          1           0        7.194112   -5.382271    2.062474
    148          1           0        9.539000   -4.575954    1.678122
    149          1           0        8.938882   -2.921001    1.499555
    150          1           0        9.818949   -3.135187    3.747101
    151          1           0        8.058868   -3.020474    3.877262
    152          1           0        7.925468   -5.517528    4.173318
    153          1           0        9.682126   -5.628648    3.992237
    154          1           0        9.978857   -4.207533    6.039043
    155          1           0        8.223355   -4.088621    6.213985
    156          1           0        9.842332   -6.712226    6.341114
    157          1           0        9.145004   -5.866738    7.739040
    158          1           0        8.079267   -6.591909    6.516822
    159          1           0        5.057940   -4.303884    0.135347
    160          1           0        5.615897   -5.011623   -1.379105
    161          1           0        5.974277   -6.768693    1.051939
    162          1           0        4.306558   -6.423734    0.618171
    163          1           0        6.342282   -7.536794   -1.379103
    164          1           0        5.271841   -8.549391   -0.403686
    165          1           0        3.272465   -7.445774   -1.387800
    166          1           0        4.303123   -6.428802   -2.404335
    167          1           0        4.249431   -9.495916   -2.521841
    168          1           0        3.335123   -8.437916   -3.602360
    169          1           0        5.436081   -9.179838   -4.723049
    170          1           0        5.482894   -7.425687   -4.448551
    171          1           0        6.411869   -8.516091   -3.399656
    172          1           0        6.001532   -1.912825    0.230501
    173          1           0        2.073257   10.790353    1.017362
    174          1           0        2.680307   13.184152    0.938350
    175          1           0        4.563955   13.949353   -0.491190
    176          1           0        5.836798   12.295595   -1.843094
    177          1           0        5.224901    9.905945   -1.778287
    178          1           0       -0.186705   10.838130   -0.167383
    179          1           0       -0.916073   13.197171   -0.068368
    180          1           0       -3.148887   13.777759    0.858954
    181          1           0       -4.644963   11.971545    1.686572
    182          1           0       -3.920866    9.621504    1.595242
 ---------------------------------------------------------------------
 Rotational constants (GHZ):           0.0085781           0.0073658           0.0042552
 Leave Link  202 at Mon Nov 10 14:05:15 2025, MaxMem= 30870077440 cpu:               0.3 elap:               0.0
 (Enter /public/software/gauss/g16/l301.exe)
 Standard basis: def2TZVPP (5D, 7F)
 Ernie: Thresh=  0.10000D-02 Tol=  0.10000D-05 Strict=F.
 There are  4788 symmetry adapted cartesian basis functions of A   symmetry.
 There are  4214 symmetry adapted basis functions of A   symmetry.
  4214 basis functions,  6426 primitive gaussians,  4788 cartesian basis functions
   345 alpha electrons      345 beta electrons
       nuclear repulsion energy     15280.4345728313 Hartrees.
 IExCor= 4336 DFT=T Ex+Corr=M062X ExCW=0 ScaHFX=  0.540000
 ScaDFX=  1.000000  1.000000  1.000000  1.000000 ScalE2=  1.000000  1.000000
 IRadAn=      5 IRanWt=     -1 IRanGd=            0 ICorTp=0 IEmpDi=131
 NAtoms=  182 NActive=  182 NUniq=  182 SFac= 1.00D+00 NAtFMM=   60 NAOKFM=T Big=T
 Integral buffers will be    131072 words long.
 Raffenetti 2 integral format.
 Two-electron integral symmetry is turned on.
 R6Disp:  Grimme-D3 Dispersion energy=       -0.0178454193 Hartrees.
 Nuclear repulsion after empirical dispersion term =    15280.4167274120 Hartrees.
 ------------------------------------------------------------------------------
 Polarizable Continuum Model (PCM)
 =================================
 Model                : PCM.
 Atomic radii         : UFF (Universal Force Field).
 Polarization charges : Total charges.
 Charge compensation  : None.
 Solution method      : On-the-fly selection.
 Cavity type          : Scaled VdW (van der Waals Surface) (Alpha=1.100).
 Cavity algorithm     : GePol (No added spheres)
                        Default sphere list used, NSphG=  182.
                        Lebedev-Laikov grids with approx.  5.0 points / Ang**2.
                        Smoothing algorithm: York/Karplus (Gamma=1.0000).
                        Polarization charges: spherical gaussians, with
                                              point-specific exponents (IZeta= 3).
                        Self-potential: point-specific (ISelfS= 7).
                        Self-field    : sphere-specific E.n sum rule (ISelfD= 2).
 Solvent              : Water, Eps=  78.355300 Eps(inf)=   1.777849
 ------------------------------------------------------------------------------
 GePol: Number of generator spheres                  =     182
 GePol: Total number of spheres                      =     182
 GePol: Number of exposed spheres                    =     182 (100.00%)
 GePol: Number of points                             =   12071
 GePol: Average weight of points                     =       0.13
 GePol: Minimum weight of points                     =   0.49D-11
 GePol: Maximum weight of points                     =    0.20577
 GePol: Number of points with low weight             =     852
 GePol: Fraction of low-weight points (<1% of avg)   =       7.06%
 GePol: Cavity surface area                          =   1541.360 Ang**2
 GePol: Cavity volume                                =   1826.005 Ang**3
 Leave Link  301 at Mon Nov 10 14:05:15 2025, MaxMem= 30870077440 cpu:               6.2 elap:               0.1
 (Enter /public/software/gauss/g16/l302.exe)
 NPDir=0 NMtPBC=     1 NCelOv=     1 NCel=       1 NClECP=     1 NCelD=      1
         NCelK=      1 NCelE2=     1 NClLst=     1 CellRange=     0.0.
 One-electron integrals computed using PRISM.
 One-electron integral symmetry used in STVInt
   1 Symmetry operations used in ECPInt.
 ECPInt:  NShTT= 1252153 NPrTT= 3467436 LenC2=  424156 LenP2D=  770761.
 LDataN:  DoStor=T MaxTD1= 6 Len=  172
 Number of processors reduced to  41 by ecpmxn.
 NBasis=  4214 RedAO= T EigKep=  2.99D-06  NBF=  4214
 NBsUse=  4214 1.00D-06 EigRej= -1.00D+00 NBFU=  4214
 Precomputing XC quadrature grid using
 IXCGrd= 4 IRadAn=           5 IRanWt=          -1 IRanGd=           0 AccXCQ= 0.00D+00.
 Generated NRdTot=       0 NPtTot=           0 NUsed=           0 NTot=          32
 NSgBfM=  3069  3057  3069  3069  3069 MxSgAt=   182 MxSgA2=   179.
 Leave Link  302 at Mon Nov 10 14:06:47 2025, MaxMem= 30870077440 cpu:            5853.0 elap:              92.0
 (Enter /public/software/gauss/g16/l303.exe)
 DipDrv:  MaxL=1.
 Leave Link  303 at Mon Nov 10 14:06:49 2025, MaxMem= 30870077440 cpu:             115.5 elap:               2.0
 (Enter /public/software/gauss/g16/l401.exe)
 ExpMin= 6.06D-02 ExpMax= 3.55D+04 ExpMxC= 1.21D+03 IAcc=3 IRadAn=         5 AccDes= 0.00D+00
 Harris functional with IExCor= 1009 and IRadAn=       5 diagonalized for initial guess.
 HarFok:  IExCor= 1009 AccDes= 0.00D+00 IRadAn=         5 IDoV= 1 UseB2=F ITyADJ=14
 ICtDFT=  3500011 ScaDFX=  1.000000  1.000000  1.000000  1.000000
 FoFCou: FMM=F IPFlag=           0 FMFlag=      100000 FMFlg1=        2001
         NFxFlg=           0 DoJE=T BraDBF=F KetDBF=T FulRan=T
         wScrn=  0.000000 ICntrl=       500 IOpCl=  0 I1Cent=   200000004 NGrid=           0
         NMat0=    1 NMatS0=      1 NMatT0=    0 NMatD0=    1 NMtDS0=    0 NMtDT0=    0
 Petite list used in FoFCou.
 Harris En= -4124.98981239707    
 JPrj=0 DoOrth=F DoCkMO=F.
 Leave Link  401 at Mon Nov 10 14:07:46 2025, MaxMem= 30870077440 cpu:            3641.4 elap:              57.1
 (Enter /public/software/gauss/g16/l502.exe)
 Integral symmetry usage will be decided dynamically.
 Closed shell SCF:
 Using DIIS extrapolation, IDIIS=  1040.
 NGot= 30870077440 LenX= 30823880782 LenY= 30800951050
 Requested convergence on RMS density matrix=1.00D-08 within 128 cycles.
 Requested convergence on MAX density matrix=1.00D-06.
 Requested convergence on             energy=1.00D-06.
 No special actions if energy rises.
 Fock matrices will be formed incrementally for  20 cycles.

 Cycle   1  Pass 1  IDiag  1:
 FoFJK:  IHMeth= 1 ICntrl=       0 DoSepK=F KAlg= 0 I1Cent=           0 FoldK=F
 IRaf= 300000000 NMat=       1 IRICut=       1 DoRegI=T DoRafI=F ISym2E= 0 IDoP0=0 IntGTp=1.
 FoFCou: FMM=T IPFlag=           0 FMFlag=      100000 FMFlg1=        2001
         NFxFlg=           0 DoJE=F BraDBF=F KetDBF=F FulRan=T
         wScrn=  0.000000 ICntrl=         0 IOpCl=  0 I1Cent=           0 NGrid=           0
         NMat0=    1 NMatS0=      1 NMatT0=    0 NMatD0=    1 NMtDS0=    0 NMtDT0=    0
 Symmetry not used in FoFCou.
 FMM levels:  10  Number of levels for PrismC:   9
 Inv3:  Mode=1 IEnd=   437127123.
 Iteration    1 A*A^-1 deviation from unit magnitude is 2.26D-14 for  12071.
 Iteration    1 A*A^-1 deviation from orthogonality  is 7.35D-15 for  12066   5372.
 Iteration    1 A^-1*A deviation from unit magnitude is 2.26D-14 for  12071.
 Iteration    1 A^-1*A deviation from orthogonality  is 3.01D-13 for  11735  11731.
 E= -4124.17206209437    
 DIIS: error= 1.79D-02 at cycle   1 NSaved=   1.
 NSaved= 1 IEnMin= 1 EnMin= -4124.17206209437     IErMin= 1 ErrMin= 1.79D-02
 ErrMax= 1.79D-02  0.00D+00 EMaxC= 1.00D-01 BMatC= 3.13D+00 BMatP= 3.13D+00
 IDIUse=3 WtCom= 8.21D-01 WtEn= 1.79D-01
 Coeff-Com:  0.100D+01
 Coeff-En:   0.100D+01
 Coeff:      0.100D+01
 Gap=     0.128 Goal=   None    Shift=    0.000
 GapD=    0.128 DampG=1.000 DampE=0.500 DampFc=0.5000 IDamp=-1.
 Damping current iteration by 5.00D-01
 RMSDP=1.01D-03 MaxDP=4.60D-01              OVMax= 2.93D-01

 Cycle   2  Pass 1  IDiag  1:
 RMSU=  4.98D-04    CP:  9.66D-01
 E= -4125.42577266635     Delta-E=       -1.253710571982 Rises=F Damp=T
 DIIS: error= 5.38D-03 at cycle   2 NSaved=   2.
 NSaved= 2 IEnMin= 2 EnMin= -4125.42577266635     IErMin= 2 ErrMin= 5.38D-03
 ErrMax= 5.38D-03  0.00D+00 EMaxC= 1.00D-01 BMatC= 3.00D-01 BMatP= 3.13D+00
 IDIUse=3 WtCom= 9.46D-01 WtEn= 5.38D-02
 Coeff-Com: -0.624D-01 0.106D+01
 Coeff-En:   0.000D+00 0.100D+01
 Coeff:     -0.591D-01 0.106D+01
 Gap=     0.177 Goal=   None    Shift=    0.000
 RMSDP=4.58D-04 MaxDP=7.28D-02 DE=-1.25D+00 OVMax= 2.40D-01

 Cycle   3  Pass 1  IDiag  1:
 RMSU=  4.18D-04    CP:  9.39D-01  1.35D+00
 E= -4126.60865922242     Delta-E=       -1.182886556067 Rises=F Damp=F
 DIIS: error= 8.56D-03 at cycle   3 NSaved=   3.
 NSaved= 3 IEnMin= 3 EnMin= -4126.60865922242     IErMin= 2 ErrMin= 5.38D-03
 ErrMax= 8.56D-03  0.00D+00 EMaxC= 1.00D-01 BMatC= 1.97D-01 BMatP= 3.00D-01
 IDIUse=3 WtCom= 9.14D-01 WtEn= 8.56D-02
 Coeff-Com: -0.112D+00 0.509D+00 0.603D+00
 Coeff-En:   0.000D+00 0.000D+00 0.100D+01
 Coeff:     -0.102D+00 0.465D+00 0.637D+00
 Gap=     0.120 Goal=   None    Shift=    0.000
 RMSDP=1.24D-04 MaxDP=4.78D-02 DE=-1.18D+00 OVMax= 1.13D-01

 Cycle   4  Pass 1  IDiag  1:
 RMSU=  1.21D-04    CP:  9.40D-01  1.39D+00  9.53D-01
 E= -4126.72793868557     Delta-E=       -0.119279463153 Rises=F Damp=F
 DIIS: error= 3.36D-03 at cycle   4 NSaved=   4.
 NSaved= 4 IEnMin= 4 EnMin= -4126.72793868557     IErMin= 4 ErrMin= 3.36D-03
 ErrMax= 3.36D-03  0.00D+00 EMaxC= 1.00D-01 BMatC= 3.94D-02 BMatP= 1.97D-01
 IDIUse=3 WtCom= 9.66D-01 WtEn= 3.36D-02
 Coeff-Com: -0.394D-01 0.115D+00 0.350D+00 0.575D+00
 Coeff-En:   0.000D+00 0.000D+00 0.155D+00 0.845D+00
 Coeff:     -0.381D-01 0.111D+00 0.343D+00 0.584D+00
 Gap=     0.121 Goal=   None    Shift=    0.000
 RMSDP=5.08D-05 MaxDP=2.52D-02 DE=-1.19D-01 OVMax= 3.22D-02

 Cycle   5  Pass 1  IDiag  1:
 RMSU=  3.86D-05    CP:  9.37D-01  1.37D+00  9.65D-01  7.48D-01
 E= -4126.75633675230     Delta-E=       -0.028398066730 Rises=F Damp=F
 DIIS: error= 6.73D-04 at cycle   5 NSaved=   5.
 NSaved= 5 IEnMin= 5 EnMin= -4126.75633675230     IErMin= 5 ErrMin= 6.73D-04
 ErrMax= 6.73D-04  0.00D+00 EMaxC= 1.00D-01 BMatC= 1.06D-03 BMatP= 3.94D-02
 IDIUse=3 WtCom= 9.93D-01 WtEn= 6.73D-03
 Coeff-Com: -0.848D-02 0.154D-01 0.104D+00 0.238D+00 0.651D+00
 Coeff-En:   0.000D+00 0.000D+00 0.000D+00 0.000D+00 0.100D+01
 Coeff:     -0.842D-02 0.153D-01 0.104D+00 0.236D+00 0.653D+00
 Gap=     0.122 Goal=   None    Shift=    0.000
 RMSDP=1.37D-05 MaxDP=3.79D-03 DE=-2.84D-02 OVMax= 5.14D-03

 Cycle   6  Pass 1  IDiag  1:
 RMSU=  1.30D-05    CP:  9.37D-01  1.37D+00  9.64D-01  7.37D-01  8.99D-01
 E= -4126.75721792793     Delta-E=       -0.000881175627 Rises=F Damp=F
 DIIS: error= 1.45D-04 at cycle   6 NSaved=   6.
 NSaved= 6 IEnMin= 6 EnMin= -4126.75721792793     IErMin= 6 ErrMin= 1.45D-04
 ErrMax= 1.45D-04  0.00D+00 EMaxC= 1.00D-01 BMatC= 1.05D-04 BMatP= 1.06D-03
 IDIUse=3 WtCom= 9.99D-01 WtEn= 1.45D-03
 Coeff-Com: -0.971D-03-0.542D-03 0.225D-01 0.632D-01 0.289D+00 0.626D+00
 Coeff-En:   0.000D+00 0.000D+00 0.000D+00 0.000D+00 0.000D+00 0.100D+01
 Coeff:     -0.970D-03-0.541D-03 0.225D-01 0.631D-01 0.289D+00 0.627D+00
 Gap=     0.122 Goal=   None    Shift=    0.000
 RMSDP=4.68D-06 MaxDP=1.39D-03 DE=-8.81D-04 OVMax= 2.49D-03

 Cycle   7  Pass 1  IDiag  1:
 RMSU=  4.54D-06    CP:  9.37D-01  1.37D+00  9.65D-01  7.38D-01  9.15D-01
                    CP:  9.39D-01
 E= -4126.75730758488     Delta-E=       -0.000089656947 Rises=F Damp=F
 DIIS: error= 1.06D-04 at cycle   7 NSaved=   7.
 NSaved= 7 IEnMin= 7 EnMin= -4126.75730758488     IErMin= 7 ErrMin= 1.06D-04
 ErrMax= 1.06D-04  0.00D+00 EMaxC= 1.00D-01 BMatC= 2.30D-05 BMatP= 1.05D-04
 IDIUse=3 WtCom= 9.99D-01 WtEn= 1.06D-03
 Coeff-Com:  0.965D-03-0.302D-02-0.542D-02-0.613D-02 0.473D-01 0.340D+00
 Coeff-Com:  0.627D+00
 Coeff-En:   0.000D+00 0.000D+00 0.000D+00 0.000D+00 0.000D+00 0.435D-01
 Coeff-En:   0.956D+00
 Coeff:      0.964D-03-0.301D-02-0.541D-02-0.613D-02 0.473D-01 0.339D+00
 Coeff:      0.627D+00
 Gap=     0.123 Goal=   None    Shift=    0.000
 RMSDP=3.04D-06 MaxDP=2.39D-03 DE=-8.97D-05 OVMax= 1.16D-03

 Cycle   8  Pass 1  IDiag  1:
 RMSU=  2.20D-06    CP:  9.37D-01  1.37D+00  9.66D-01  7.36D-01  9.46D-01
                    CP:  1.02D+00  8.15D-01
 E= -4126.75732837173     Delta-E=       -0.000020786858 Rises=F Damp=F
 DIIS: error= 4.64D-05 at cycle   8 NSaved=   8.
 NSaved= 8 IEnMin= 8 EnMin= -4126.75732837173     IErMin= 8 ErrMin= 4.64D-05
 ErrMax= 4.64D-05  0.00D+00 EMaxC= 1.00D-01 BMatC= 3.50D-06 BMatP= 2.30D-05
 IDIUse=1 WtCom= 1.00D+00 WtEn= 0.00D+00
 Coeff-Com:  0.644D-03-0.151D-02-0.621D-02-0.129D-01-0.191D-01 0.841D-01
 Coeff-Com:  0.333D+00 0.622D+00
 Coeff:      0.644D-03-0.151D-02-0.621D-02-0.129D-01-0.191D-01 0.841D-01
 Coeff:      0.333D+00 0.622D+00
 Gap=     0.123 Goal=   None    Shift=    0.000
 RMSDP=1.05D-06 MaxDP=5.21D-04 DE=-2.08D-05 OVMax= 5.83D-04

 Cycle   9  Pass 1  IDiag  1:
 RMSU=  7.35D-07    CP:  9.37D-01  1.37D+00  9.66D-01  7.37D-01  9.47D-01
                    CP:  1.04D+00  9.54D-01  8.61D-01
 E= -4126.75733170765     Delta-E=       -0.000003335914 Rises=F Damp=F
 DIIS: error= 1.73D-05 at cycle   9 NSaved=   9.
 NSaved= 9 IEnMin= 9 EnMin= -4126.75733170765     IErMin= 9 ErrMin= 1.73D-05
 ErrMax= 1.73D-05  0.00D+00 EMaxC= 1.00D-01 BMatC= 5.68D-07 BMatP= 3.50D-06
 IDIUse=1 WtCom= 1.00D+00 WtEn= 0.00D+00
 Coeff-Com:  0.191D-03-0.347D-03-0.246D-02-0.597D-02-0.171D-01-0.465D-02
 Coeff-Com:  0.817D-01 0.331D+00 0.617D+00
 Coeff:      0.191D-03-0.347D-03-0.246D-02-0.597D-02-0.171D-01-0.465D-02
 Coeff:      0.817D-01 0.331D+00 0.617D+00
 Gap=     0.123 Goal=   None    Shift=    0.000
 RMSDP=4.29D-07 MaxDP=2.21D-04 DE=-3.34D-06 OVMax= 2.62D-04

 Cycle  10  Pass 1  IDiag  1:
 RMSU=  3.04D-07    CP:  9.37D-01  1.37D+00  9.66D-01  7.36D-01  9.49D-01
                    CP:  1.05D+00  9.55D-01  9.75D-01  1.00D+00
 E= -4126.75733233051     Delta-E=       -0.000000622866 Rises=F Damp=F
 DIIS: error= 3.43D-06 at cycle  10 NSaved=  10.
 NSaved=10 IEnMin=10 EnMin= -4126.75733233051     IErMin=10 ErrMin= 3.43D-06
 ErrMax= 3.43D-06  0.00D+00 EMaxC= 1.00D-01 BMatC= 6.74D-08 BMatP= 5.68D-07
 IDIUse=1 WtCom= 1.00D+00 WtEn= 0.00D+00
 Coeff-Com: -0.375D-04 0.123D-03 0.791D-04-0.238D-03-0.394D-02-0.171D-01
 Coeff-Com: -0.265D-01 0.316D-01 0.271D+00 0.745D+00
 Coeff:     -0.375D-04 0.123D-03 0.791D-04-0.238D-03-0.394D-02-0.171D-01
 Coeff:     -0.265D-01 0.316D-01 0.271D+00 0.745D+00
 Gap=     0.123 Goal=   None    Shift=    0.000
 RMSDP=1.80D-07 MaxDP=7.45D-05 DE=-6.23D-07 OVMax= 1.48D-04

 Cycle  11  Pass 1  IDiag  1:
 RMSU=  1.17D-07    CP:  9.37D-01  1.37D+00  9.66D-01  7.36D-01  9.49D-01
                    CP:  1.05D+00  9.69D-01  9.92D-01  1.15D+00  1.04D+00
 E= -4126.75733243719     Delta-E=       -0.000000106673 Rises=F Damp=F
 DIIS: error= 1.40D-06 at cycle  11 NSaved=  11.
 NSaved=11 IEnMin=11 EnMin= -4126.75733243719     IErMin=11 ErrMin= 1.40D-06
 ErrMax= 1.40D-06  0.00D+00 EMaxC= 1.00D-01 BMatC= 1.25D-08 BMatP= 6.74D-08
 IDIUse=1 WtCom= 1.00D+00 WtEn= 0.00D+00
 Coeff-Com: -0.472D-04 0.113D-03 0.428D-03 0.831D-03 0.864D-03-0.714D-02
 Coeff-Com: -0.252D-01-0.367D-01 0.233D-01 0.355D+00 0.689D+00
 Coeff:     -0.472D-04 0.113D-03 0.428D-03 0.831D-03 0.864D-03-0.714D-02
 Coeff:     -0.252D-01-0.367D-01 0.233D-01 0.355D+00 0.689D+00
 Gap=     0.123 Goal=   None    Shift=    0.000
 RMSDP=6.77D-08 MaxDP=2.41D-05 DE=-1.07D-07 OVMax= 6.59D-05

 Cycle  12  Pass 1  IDiag  1:
 RMSU=  4.47D-08    CP:  9.37D-01  1.37D+00  9.66D-01  7.36D-01  9.49D-01
                    CP:  1.05D+00  9.70D-01  1.01D+00  1.18D+00  1.15D+00
                    CP:  1.03D+00
 E= -4126.75733245530     Delta-E=       -0.000000018110 Rises=F Damp=F
 DIIS: error= 6.27D-07 at cycle  12 NSaved=  12.
 NSaved=12 IEnMin=12 EnMin= -4126.75733245530     IErMin=12 ErrMin= 6.27D-07
 ErrMax= 6.27D-07  0.00D+00 EMaxC= 1.00D-01 BMatC= 1.62D-09 BMatP= 1.25D-08
 IDIUse=1 WtCom= 1.00D+00 WtEn= 0.00D+00
 Coeff-Com: -0.153D-04 0.336D-04 0.178D-03 0.390D-03 0.842D-03-0.115D-02
 Coeff-Com: -0.806D-02-0.199D-01-0.255D-01 0.665D-01 0.307D+00 0.679D+00
 Coeff:     -0.153D-04 0.336D-04 0.178D-03 0.390D-03 0.842D-03-0.115D-02
 Coeff:     -0.806D-02-0.199D-01-0.255D-01 0.665D-01 0.307D+00 0.679D+00
 Gap=     0.123 Goal=   None    Shift=    0.000
 RMSDP=2.19D-08 MaxDP=4.48D-06 DE=-1.81D-08 OVMax= 2.18D-05

 Cycle  13  Pass 1  IDiag  1:
 RMSU=  1.56D-08    CP:  9.37D-01  1.37D+00  9.66D-01  7.36D-01  9.49D-01
                    CP:  1.05D+00  9.71D-01  1.01D+00  1.19D+00  1.17D+00
                    CP:  1.09D+00  1.07D+00
 E= -4126.75733245541     Delta-E=       -0.000000000113 Rises=F Damp=F
 DIIS: error= 3.47D-07 at cycle  13 NSaved=  13.
 NSaved=13 IEnMin=13 EnMin= -4126.75733245541     IErMin=13 ErrMin= 3.47D-07
 ErrMax= 3.47D-07  0.00D+00 EMaxC= 1.00D-01 BMatC= 4.30D-10 BMatP= 1.62D-09
 IDIUse=1 WtCom= 1.00D+00 WtEn= 0.00D+00
 Coeff-Com:  0.791D-06-0.329D-05 0.181D-04 0.616D-04 0.309D-03 0.699D-03
 Coeff-Com:  0.229D-03-0.398D-02-0.194D-01-0.302D-01 0.411D-01 0.382D+00
 Coeff-Com:  0.629D+00
 Coeff:      0.791D-06-0.329D-05 0.181D-04 0.616D-04 0.309D-03 0.699D-03
 Coeff:      0.229D-03-0.398D-02-0.194D-01-0.302D-01 0.411D-01 0.382D+00
 Coeff:      0.629D+00
 Gap=     0.123 Goal=   None    Shift=    0.000
 RMSDP=1.04D-08 MaxDP=3.29D-06 DE=-1.13D-10 OVMax= 9.09D-06

 Cycle  14  Pass 1  IDiag  1:
 RMSU=  7.12D-09    CP:  9.37D-01  1.37D+00  9.66D-01  7.36D-01  9.49D-01
                    CP:  1.05D+00  9.71D-01  1.01D+00  1.20D+00  1.18D+00
                    CP:  1.12D+00  1.16D+00  1.12D+00
 E= -4126.75733245869     Delta-E=       -0.000000003278 Rises=F Damp=F
 DIIS: error= 6.68D-08 at cycle  14 NSaved=  14.
 NSaved=14 IEnMin=14 EnMin= -4126.75733245869     IErMin=14 ErrMin= 6.68D-08
 ErrMax= 6.68D-08  0.00D+00 EMaxC= 1.00D-01 BMatC= 2.98D-11 BMatP= 4.30D-10
 IDIUse=1 WtCom= 1.00D+00 WtEn= 0.00D+00
 Coeff-Com:  0.213D-05-0.521D-05-0.155D-04-0.242D-04 0.126D-04 0.415D-03
 Coeff-Com:  0.112D-02 0.119D-02-0.388D-02-0.190D-01-0.255D-01 0.508D-01
 Coeff-Com:  0.229D+00 0.766D+00
 Coeff:      0.213D-05-0.521D-05-0.155D-04-0.242D-04 0.126D-04 0.415D-03
 Coeff:      0.112D-02 0.119D-02-0.388D-02-0.190D-01-0.255D-01 0.508D-01
 Coeff:      0.229D+00 0.766D+00
 Gap=     0.123 Goal=   None    Shift=    0.000
 RMSDP=3.89D-09 MaxDP=9.07D-07 DE=-3.28D-09 OVMax= 4.96D-06

 Error on total polarization charges =  0.03883
 SCF Done:  E(RM062X) =  -4126.75733246     A.U. after   14 cycles
            NFock= 14  Conv=0.39D-08     -V/T= 2.0059
 KE= 4.102470714534D+03 PE=-4.014984008350D+04 EE= 1.664019530910D+04
 Leave Link  502 at Mon Nov 10 15:14:04 2025, MaxMem= 30870077440 cpu:          248820.3 elap:            3977.3
 (Enter /public/software/gauss/g16/l601.exe)
 Copying SCF densities to generalized density rwf, IOpCl= 0 IROHF=0.
 Hyperfine terms turned off by default for NAtoms > 100.

 **********************************************************************

            Population analysis using the SCF density.

 **********************************************************************

 Orbital symmetries:
       Occupied  (A) (A) (A) (A) (A) (A) (A) (A) (A) (A) (A) (A)
                 (A) (A) (A) (A) (A) (A) (A) (A) (A) (A) (A) (A)
                 (A) (A) (A) (A) (A) (A) (A) (A) (A) (A) (A) (A)
                 (A) (A) (A) (A) (A) (A) (A) (A) (A) (A) (A) (A)
                 (A) (A) (A) (A) (A) (A) (A) (A) (A) (A) (A) (A)
                 (A) (A) (A) (A) (A) (A) (A) (A) (A) (A) (A) (A)
                 (A) (A) (A) (A) (A) (A) (A) (A) (A) (A) (A) (A)
                 (A) (A) (A) (A) (A) (A) (A) (A) (A) (A) (A) (A)
                 (A) (A) (A) (A) (A) (A) (A) (A) (A) (A) (A) (A)
                 (A) (A) (A) (A) (A) (A) (A) (A) (A) (A) (A) (A)
                 (A) (A) (A) (A) (A) (A) (A) (A) (A) (A) (A) (A)
                 (A) (A) (A) (A) (A) (A) (A) (A) (A) (A) (A) (A)
                 (A) (A) (A) (A) (A) (A) (A) (A) (A) (A) (A) (A)
                 (A) (A) (A) (A) (A) (A) (A) (A) (A) (A) (A) (A)
                 (A) (A) (A) (A) (A) (A) (A) (A) (A) (A) (A) (A)
                 (A) (A) (A) (A) (A) (A) (A) (A) (A) (A) (A) (A)
                 (A) (A) (A) (A) (A) (A) (A) (A) (A) (A) (A) (A)
                 (A) (A) (A) (A) (A) (A) (A) (A) (A) (A) (A) (A)
                 (A) (A) (A) (A) (A) (A) (A) (A) (A) (A) (A) (A)
                 (A) (A) (A) (A) (A) (A) (A) (A) (A) (A) (A) (A)
                 (A) (A) (A) (A) (A) (A) (A) (A) (A) (A) (A) (A)
                 (A) (A) (A) (A) (A) (A) (A) (A) (A) (A) (A) (A)
                 (A) (A) (A) (A) (A) (A) (A) (A) (A) (A) (A) (A)
                 (A) (A) (A) (A) (A) (A) (A) (A) (A) (A) (A) (A)
                 (A) (A) (A) (A) (A) (A) (A) (A) (A) (A) (A) (A)
                 (A) (A) (A) (A) (A) (A) (A) (A) (A) (A) (A) (A)
                 (A) (A) (A) (A) (A) (A) (A) (A) (A) (A) (A) (A)
                 (A) (A) (A) (A) (A) (A) (A) (A) (A) (A) (A) (A)
                 (A) (A) (A) (A) (A) (A) (A) (A) (A)
       Virtual   (A) (A) (A) (A) (A) (A) (A) (A) (A) (A) (A) (A)
                 (A) (A) (A) (A) (A) (A) (A) (A) (A) (A) (A) (A)
                 (A) (A) (A) (A) (A) (A) (A) (A) (A) (A) (A) (A)
                 (A) (A) (A) (A) (A) (A) (A) (A) (A) (A) (A) (A)
                 (A) (A) (A) (A) (A) (A) (A) (A) (A) (A) (A) (A)
                 (A) (A) (A) (A) (A) (A) (A) (A) (A) (A) (A) (A)
                 (A) (A) (A) (A) (A) (A) (A) (A) (A) (A) (A) (A)
                 (A) (A) (A) (A) (A) (A) (A) (A) (A) (A) (A) (A)
                 (A) (A) (A) (A) (A) (A) (A) (A) (A) (A) (A) (A)
                 (A) (A) (A) (A) (A) (A) (A) (A) (A) (A) (A) (A)
                 (A) (A) (A) (A) (A) (A) (A) (A) (A) (A) (A) (A)
                 (A) (A) (A) (A) (A) (A) (A) (A) (A) (A) (A) (A)
                 (A) (A) (A) (A) (A) (A) (A) (A) (A) (A) (A) (A)
                 (A) (A) (A) (A) (A) (A) (A) (A) (A) (A) (A) (A)
                 (A) (A) (A) (A) (A) (A) (A) (A) (A) (A) (A) (A)
                 (A) (A) (A) (A) (A) (A) (A) (A) (A) (A) (A) (A)
                 (A) (A) (A) (A) (A) (A) (A) (A) (A) (A) (A) (A)
                 (A) (A) (A) (A) (A) (A) (A) (A) (A) (A) (A) (A)
                 (A) (A) (A) (A) (A) (A) (A) (A) (A) (A) (A) (A)
                 (A) (A) (A) (A) (A) (A) (A) (A) (A) (A) (A) (A)
                 (A) (A) (A) (A) (A) (A) (A) (A) (A) (A) (A) (A)
                 (A) (A) (A) (A) (A) (A) (A) (A) (A) (A) (A) (A)
                 (A) (A) (A) (A) (A) (A) (A) (A) (A) (A) (A) (A)
                 (A) (A) (A) (A) (A) (A) (A) (A) (A) (A) (A) (A)
                 (A) (A) (A) (A) (A) (A) (A) (A) (A) (A) (A) (A)
                 (A) (A) (A) (A) (A) (A) (A) (A) (A) (A) (A) (A)
                 (A) (A) (A) (A) (A) (A) (A) (A) (A) (A) (A) (A)
                 (A) (A) (A) (A) (A) (A) (A) (A) (A) (A) (A) (A)
                 (A) (A) (A) (A) (A) (A) (A) (A) (A) (A) (A) (A)
                 (A) (A) (A) (A) (A) (A) (A) (A) (A) (A) (A) (A)
                 (A) (A) (A) (A) (A) (A) (A) (A) (A) (A) (A) (A)
                 (A) (A) (A) (A) (A) (A) (A) (A) (A) (A) (A) (A)
                 (A) (A) (A) (A) (A) (A) (A) (A) (A) (A) (A) (A)
                 (A) (A) (A) (A) (A) (A) (A) (A) (A) (A) (A) (A)
                 (A) (A) (A) (A) (A) (A) (A) (A) (A) (A) (A) (A)
                 (A) (A) (A) (A) (A) (A) (A) (A) (A) (A) (A) (A)
                 (A) (A) (A) (A) (A) (A) (A) (A) (A) (A) (A) (A)
                 (A) (A) (A) (A) (A) (A) (A) (A) (A) (A) (A) (A)
                 (A) (A) (A) (A) (A) (A) (A) (A) (A) (A) (A) (A)
                 (A) (A) (A) (A) (A) (A) (A) (A) (A) (A) (A) (A)
                 (A) (A) (A) (A) (A) (A) (A) (A) (A) (A) (A) (A)
                 (A) (A) (A) (A) (A) (A) (A) (A) (A) (A) (A) (A)
                 (A) (A) (A) (A) (A) (A) (A) (A) (A) (A) (A) (A)
                 (A) (A) (A) (A) (A) (A) (A) (A) (A) (A) (A) (A)
                 (A) (A) (A) (A) (A) (A) (A) (A) (A) (A) (A) (A)
                 (A) (A) (A) (A) (A) (A) (A) (A) (A) (A) (A) (A)
                 (A) (A) (A) (A) (A) (A) (A) (A) (A) (A) (A) (A)
                 (A) (A) (A) (A) (A) (A) (A) (A) (A) (A) (A) (A)
                 (A) (A) (A) (A) (A) (A) (A) (A) (A) (A) (A) (A)
                 (A) (A) (A) (A) (A) (A) (A) (A) (A) (A) (A) (A)
                 (A) (A) (A) (A) (A) (A) (A) (A) (A) (A) (A) (A)
                 (A) (A) (A) (A) (A) (A) (A) (A) (A) (A) (A) (A)
                 (A) (A) (A) (A) (A) (A) (A) (A) (A) (A) (A) (A)
                 (A) (A) (A) (A) (A) (A) (A) (A) (A) (A) (A) (A)
                 (A) (A) (A) (A) (A) (A) (A) (A) (A) (A) (A) (A)
                 (A) (A) (A) (A) (A) (A) (A) (A) (A) (A) (A) (A)
                 (A) (A) (A) (A) (A) (A) (A) (A) (A) (A) (A) (A)
                 (A) (A) (A) (A) (A) (A) (A) (A) (A) (A) (A) (A)
                 (A) (A) (A) (A) (A) (A) (A) (A) (A) (A) (A) (A)
                 (A) (A) (A) (A) (A) (A) (A) (A) (A) (A) (A) (A)
                 (A) (A) (A) (A) (A) (A) (A) (A) (A) (A) (A) (A)
                 (A) (A) (A) (A) (A) (A) (A) (A) (A) (A) (A) (A)
                 (A) (A) (A) (A) (A) (A) (A) (A) (A) (A) (A) (A)
                 (A) (A) (A) (A) (A) (A) (A) (A) (A) (A) (A) (A)
                 (A) (A) (A) (A) (A) (A) (A) (A) (A) (A) (A) (A)
                 (A) (A) (A) (A) (A) (A) (A) (A) (A) (A) (A) (A)
                 (A) (A) (A) (A) (A) (A) (A) (A) (A) (A) (A) (A)
                 (A) (A) (A) (A) (A) (A) (A) (A) (A) (A) (A) (A)
                 (A) (A) (A) (A) (A) (A) (A) (A) (A) (A) (A) (A)
                 (A) (A) (A) (A) (A) (A) (A) (A) (A) (A) (A) (A)
                 (A) (A) (A) (A) (A) (A) (A) (A) (A) (A) (A) (A)
                 (A) (A) (A) (A) (A) (A) (A) (A) (A) (A) (A) (A)
                 (A) (A) (A) (A) (A) (A) (A) (A) (A) (A) (A) (A)
                 (A) (A) (A) (A) (A) (A) (A) (A) (A) (A) (A) (A)
                 (A) (A) (A) (A) (A) (A) (A) (A) (A) (A) (A) (A)
                 (A) (A) (A) (A) (A) (A) (A) (A) (A) (A) (A) (A)
                 (A) (A) (A) (A) (A) (A) (A) (A) (A) (A) (A) (A)
                 (A) (A) (A) (A) (A) (A) (A) (A) (A) (A) (A) (A)
                 (A) (A) (A) (A) (A) (A) (A) (A) (A) (A) (A) (A)
                 (A) (A) (A) (A) (A) (A) (A) (A) (A) (A) (A) (A)
                 (A) (A) (A) (A) (A) (A) (A) (A) (A) (A) (A) (A)
                 (A) (A) (A) (A) (A) (A) (A) (A) (A) (A) (A) (A)
                 (A) (A) (A) (A) (A) (A) (A) (A) (A) (A) (A) (A)
                 (A) (A) (A) (A) (A) (A) (A) (A) (A) (A) (A) (A)
                 (A) (A) (A) (A) (A) (A) (A) (A) (A) (A) (A) (A)
                 (A) (A) (A) (A) (A) (A) (A) (A) (A) (A) (A) (A)
                 (A) (A) (A) (A) (A) (A) (A) (A) (A) (A) (A) (A)
                 (A) (A) (A) (A) (A) (A) (A) (A) (A) (A) (A) (A)
                 (A) (A) (A) (A) (A) (A) (A) (A) (A) (A) (A) (A)
                 (A) (A) (A) (A) (A) (A) (A) (A) (A) (A) (A) (A)
                 (A) (A) (A) (A) (A) (A) (A) (A) (A) (A) (A) (A)
                 (A) (A) (A) (A) (A) (A) (A) (A) (A) (A) (A) (A)
                 (A) (A) (A) (A) (A) (A) (A) (A) (A) (A) (A) (A)
                 (A) (A) (A) (A) (A) (A) (A) (A) (A) (A) (A) (A)
                 (A) (A) (A) (A) (A) (A) (A) (A) (A) (A) (A) (A)
                 (A) (A) (A) (A) (A) (A) (A) (A) (A) (A) (A) (A)
                 (A) (A) (A) (A) (A) (A) (A) (A) (A) (A) (A) (A)
                 (A) (A) (A) (A) (A) (A) (A) (A) (A) (A) (A) (A)
                 (A) (A) (A) (A) (A) (A) (A) (A) (A) (A) (A) (A)
                 (A) (A) (A) (A) (A) (A) (A) (A) (A) (A) (A) (A)
                 (A) (A) (A) (A) (A) (A) (A) (A) (A) (A) (A) (A)
                 (A) (A) (A) (A) (A) (A) (A) (A) (A) (A) (A) (A)
                 (A) (A) (A) (A) (A) (A) (A) (A) (A) (A) (A) (A)
                 (A) (A) (A) (A) (A) (A) (A) (A) (A) (A) (A) (A)
                 (A) (A) (A) (A) (A) (A) (A) (A) (A) (A) (A) (A)
                 (A) (A) (A) (A) (A) (A) (A) (A) (A) (A) (A) (A)
                 (A) (A) (A) (A) (A) (A) (A) (A) (A) (A) (A) (A)
                 (A) (A) (A) (A) (A) (A) (A) (A) (A) (A) (A) (A)
                 (A) (A) (A) (A) (A) (A) (A) (A) (A) (A) (A) (A)
                 (A) (A) (A) (A) (A) (A) (A) (A) (A) (A) (A) (A)
                 (A) (A) (A) (A) (A) (A) (A) (A) (A) (A) (A) (A)
                 (A) (A) (A) (A) (A) (A) (A) (A) (A) (A) (A) (A)
                 (A) (A) (A) (A) (A) (A) (A) (A) (A) (A) (A) (A)
                 (A) (A) (A) (A) (A) (A) (A) (A) (A) (A) (A) (A)
                 (A) (A) (A) (A) (A) (A) (A) (A) (A) (A) (A) (A)
                 (A) (A) (A) (A) (A) (A) (A) (A) (A) (A) (A) (A)
                 (A) (A) (A) (A) (A) (A) (A) (A) (A) (A) (A) (A)
                 (A) (A) (A) (A) (A) (A) (A) (A) (A) (A) (A) (A)
                 (A) (A) (A) (A) (A) (A) (A) (A) (A) (A) (A) (A)
                 (A) (A) (A) (A) (A) (A) (A) (A) (A) (A) (A) (A)
                 (A) (A) (A) (A) (A) (A) (A) (A) (A) (A) (A) (A)
                 (A) (A) (A) (A) (A) (A) (A) (A) (A) (A) (A) (A)
                 (A) (A) (A) (A) (A) (A) (A) (A) (A) (A) (A) (A)
                 (A) (A) (A) (A) (A) (A) (A) (A) (A) (A) (A) (A)
                 (A) (A) (A) (A) (A) (A) (A) (A) (A) (A) (A) (A)
                 (A) (A) (A) (A) (A) (A) (A) (A) (A) (A) (A) (A)
                 (A) (A) (A) (A) (A) (A) (A) (A) (A) (A) (A) (A)
                 (A) (A) (A) (A) (A) (A) (A) (A) (A) (A) (A) (A)
                 (A) (A) (A) (A) (A) (A) (A) (A) (A) (A) (A) (A)
                 (A) (A) (A) (A) (A) (A) (A) (A) (A) (A) (A) (A)
                 (A) (A) (A) (A) (A) (A) (A) (A) (A) (A) (A) (A)
                 (A) (A) (A) (A) (A) (A) (A) (A) (A) (A) (A) (A)
                 (A) (A) (A) (A) (A) (A) (A) (A) (A) (A) (A) (A)
                 (A) (A) (A) (A) (A) (A) (A) (A) (A) (A) (A) (A)
                 (A) (A) (A) (A) (A) (A) (A) (A) (A) (A) (A) (A)
                 (A) (A) (A) (A) (A) (A) (A) (A) (A) (A) (A) (A)
                 (A) (A) (A) (A) (A) (A) (A) (A) (A) (A) (A) (A)
                 (A) (A) (A) (A) (A) (A) (A) (A) (A) (A) (A) (A)
                 (A) (A) (A) (A) (A) (A) (A) (A) (A) (A) (A) (A)
                 (A) (A) (A) (A) (A) (A) (A) (A) (A) (A) (A) (A)
                 (A) (A) (A) (A) (A) (A) (A) (A) (A) (A) (A) (A)
                 (A) (A) (A) (A) (A) (A) (A) (A) (A) (A) (A) (A)
                 (A) (A) (A) (A) (A) (A) (A) (A) (A) (A) (A) (A)
                 (A) (A) (A) (A) (A) (A) (A) (A) (A) (A) (A) (A)
                 (A) (A) (A) (A) (A) (A) (A) (A) (A) (A) (A) (A)
                 (A) (A) (A) (A) (A) (A) (A) (A) (A) (A) (A) (A)
                 (A) (A) (A) (A) (A) (A) (A) (A) (A) (A) (A) (A)
                 (A) (A) (A) (A) (A) (A) (A) (A) (A) (A) (A) (A)
                 (A) (A) (A) (A) (A) (A) (A) (A) (A) (A) (A) (A)
                 (A) (A) (A) (A) (A) (A) (A) (A) (A) (A) (A) (A)
                 (A) (A) (A) (A) (A) (A) (A) (A) (A) (A) (A) (A)
                 (A) (A) (A) (A) (A) (A) (A) (A) (A) (A) (A) (A)
                 (A) (A) (A) (A) (A) (A) (A) (A) (A) (A) (A) (A)
                 (A) (A) (A) (A) (A) (A) (A) (A) (A) (A) (A) (A)
                 (A) (A) (A) (A) (A) (A) (A) (A) (A) (A) (A) (A)
                 (A) (A) (A) (A) (A) (A) (A) (A) (A) (A) (A) (A)
                 (A) (A) (A) (A) (A) (A) (A) (A) (A) (A) (A) (A)
                 (A) (A) (A) (A) (A) (A) (A) (A) (A) (A) (A) (A)
                 (A) (A) (A) (A) (A) (A) (A) (A) (A) (A) (A) (A)
                 (A) (A) (A) (A) (A) (A) (A) (A) (A) (A) (A) (A)
                 (A) (A) (A) (A) (A) (A) (A) (A) (A) (A) (A) (A)
                 (A) (A) (A) (A) (A) (A) (A) (A) (A) (A) (A) (A)
                 (A) (A) (A) (A) (A) (A) (A) (A) (A) (A) (A) (A)
                 (A) (A) (A) (A) (A) (A) (A) (A) (A) (A) (A) (A)
                 (A) (A) (A) (A) (A) (A) (A) (A) (A) (A) (A) (A)
                 (A) (A) (A) (A) (A) (A) (A) (A) (A) (A) (A) (A)
                 (A) (A) (A) (A) (A) (A) (A) (A) (A) (A) (A) (A)
                 (A) (A) (A) (A) (A) (A) (A) (A) (A) (A) (A) (A)
                 (A) (A) (A) (A) (A) (A) (A) (A) (A) (A) (A) (A)
                 (A) (A) (A) (A) (A) (A) (A) (A) (A) (A) (A) (A)
                 (A) (A) (A) (A) (A) (A) (A) (A) (A) (A) (A) (A)
                 (A) (A) (A) (A) (A) (A) (A) (A) (A) (A) (A) (A)
                 (A) (A) (A) (A) (A) (A) (A) (A) (A) (A) (A) (A)
                 (A) (A) (A) (A) (A) (A) (A) (A) (A) (A) (A) (A)
                 (A) (A) (A) (A) (A) (A) (A) (A) (A) (A) (A) (A)
                 (A) (A) (A) (A) (A) (A) (A) (A) (A) (A) (A) (A)
[...]
 Alpha virt. eigenvalues --    5.45235   5.45321   5.45477   5.45646   5.45927
 Alpha virt. eigenvalues --    5.46083   5.46254   5.46367   5.46709   5.46794
 Alpha virt. eigenvalues --    5.47061   5.47184   5.47496   5.47648   5.47870
 Alpha virt. eigenvalues --    5.48327   5.48614   5.48715   5.49149   5.49524
 Alpha virt. eigenvalues --    5.49816   5.49841   5.50194   5.50590   5.50688
 Alpha virt. eigenvalues --    5.50849   5.51048   5.51544   5.51649   5.51808
 Alpha virt. eigenvalues --    5.51940   5.52255   5.52561   5.52703   5.52925
 Alpha virt. eigenvalues --    5.53150   5.53264   5.53565   5.53765   5.54239
 Alpha virt. eigenvalues --    5.54556   5.54802   5.55380   5.55620   5.55838
 Alpha virt. eigenvalues --    5.56411   5.56496   5.57074   5.57167   5.57529
 Alpha virt. eigenvalues --    5.58112   5.58441   5.58580   5.58871   5.58956
 Alpha virt. eigenvalues --    5.59423   5.59551   5.60006   5.60566   5.61014
 Alpha virt. eigenvalues --    5.61109   5.61163   5.61475   5.61720   5.61808
 Alpha virt. eigenvalues --    5.61958   5.62368   5.62411   5.62510   5.62756
 Alpha virt. eigenvalues --    5.63026   5.63313   5.63352   5.63933   5.63987
 Alpha virt. eigenvalues --    5.64429   5.64759   5.64871   5.64950   5.65099
 Alpha virt. eigenvalues --    5.65337   5.65486   5.65895   5.66309   5.66491
 Alpha virt. eigenvalues --    5.66559   5.66617   5.67013   5.67437   5.67849
 Alpha virt. eigenvalues --    5.68166   5.68392   5.69368   5.69453   5.69802
 Alpha virt. eigenvalues --    5.70110   5.70182   5.70489   5.71179   5.71763
 Alpha virt. eigenvalues --    5.71837   5.72063   5.72482   5.72626   5.73483
 Alpha virt. eigenvalues --    5.73715   5.73904   5.74071   5.74516   5.74631
 Alpha virt. eigenvalues --    5.75054   5.75092   5.75825   5.75961   5.76115
 Alpha virt. eigenvalues --    5.76885   5.77047   5.77457   5.77805   5.78386
 Alpha virt. eigenvalues --    5.78973   5.79587   5.79788   5.80395   5.80665
 Alpha virt. eigenvalues --    5.82110   5.82564   5.83238   5.83972   5.84839
 Alpha virt. eigenvalues --    5.85136   5.85949   5.86297   5.88027   5.89303
 Alpha virt. eigenvalues --    5.92608   5.92795   5.93786   5.94069   5.94565
 Alpha virt. eigenvalues --    5.95014   5.96339   5.96606   5.97566   5.98001
 Alpha virt. eigenvalues --    5.99630   6.00364   6.01689   6.02172   6.04343
 Alpha virt. eigenvalues --    6.08093   6.08498   6.08652   6.09472   6.10246
 Alpha virt. eigenvalues --    6.10780   6.12913   6.14058   6.14251   6.14552
 Alpha virt. eigenvalues --    6.14845   6.24018   6.25656   6.26602   6.28399
 Alpha virt. eigenvalues --    6.28870   6.31668   6.34045   6.40604   6.40651
 Alpha virt. eigenvalues --    6.43221   6.44157   6.46827   6.48063   6.48316
 Alpha virt. eigenvalues --    6.51760   6.52505   6.63041   6.66218   6.66625
 Alpha virt. eigenvalues --    6.70517   6.75471   6.75942   6.77206   6.77818
 Alpha virt. eigenvalues --    6.78072   6.79507   6.94264   6.94411   6.96524
 Alpha virt. eigenvalues --    6.98023   6.99633   6.99876   7.01186   7.02488
 Alpha virt. eigenvalues --    7.04835   7.09127   7.10340   7.10940   7.15099
 Alpha virt. eigenvalues --    7.15112   7.16164   7.22380   7.22666   7.26830
 Alpha virt. eigenvalues --    7.30632   7.33627   7.57764   7.57869   7.58468
 Alpha virt. eigenvalues --    7.61488   8.47938   8.50338   8.56601   8.66704
 Alpha virt. eigenvalues --    8.81394   8.85601   8.90267   8.92404   8.94488
 Alpha virt. eigenvalues --    8.96532  15.76569  22.75746  22.77521  22.89558
 Alpha virt. eigenvalues --   22.89657  22.90644  22.94459  22.97424  23.00858
 Alpha virt. eigenvalues --   23.09300  23.09359  23.10002  23.10101  23.12179
 Alpha virt. eigenvalues --   23.12706  23.14292  23.15135  23.17854  23.18133
 Alpha virt. eigenvalues --   23.20139  23.20590  23.22007  23.22217  23.22468
 Alpha virt. eigenvalues --   23.22926  23.25757  23.26028  23.26765  23.27267
 Alpha virt. eigenvalues --   23.31242  23.31763  23.32907  23.33300  23.33906
 Alpha virt. eigenvalues --   23.33942  23.34682  23.34798  23.35348  23.35878
 Alpha virt. eigenvalues --   23.37198  23.37826  23.38896  23.39341  23.41871
 Alpha virt. eigenvalues --   23.41956  23.42181  23.43214  23.44826  23.45684
 Alpha virt. eigenvalues --   23.45885  23.46349  23.46781  23.47969  23.48152
 Alpha virt. eigenvalues --   23.49401  23.49602  23.50578  23.50826  23.51042
 Alpha virt. eigenvalues --   23.51555  23.53060  23.54304  23.54883  23.57095
 Alpha virt. eigenvalues --   23.57294  23.61085  23.61350  23.65839  23.67403
 Alpha virt. eigenvalues --   23.68024  23.69583  23.69820  23.70468  23.71735
 Alpha virt. eigenvalues --   23.73639  23.78949  23.80757  24.05618  24.06049
 Alpha virt. eigenvalues --   24.17921  24.18849  24.23203  24.23653  24.35257
 Alpha virt. eigenvalues --   24.35519  24.42971  24.43720  32.40454  32.41284
 Alpha virt. eigenvalues --   32.90801  33.06657  33.22378  44.14770  44.15866
 Alpha virt. eigenvalues --   44.17858  44.23708  57.41320  57.59828
          Condensed to atoms (all electrons):
 Mulliken charges:
               1
     1  C   -0.343219
     2  C   -0.211316
     3  C   -0.237045
     4  C   -0.262944
     5  C   -0.204271
     6  C   -0.308392
     7  C    0.235438
     8  C   -0.344193
     9  C   -0.225263
    10  C   -0.207396
    11  C   -0.205284
    12  C   -0.234278
    13  C   -0.368011
    14  C   -0.199281
    15  C   -0.020060
    16  C   -0.090410
    17  C   -0.109728
    18  C   -0.170995
    19  C    0.076398
    20  C    0.051299
    21  C   -0.098814
    22  C   -0.158989
    23  C   -0.051566
    24  C   -0.083655
    25  C   -0.162303
    26  N    0.491153
    27  O   -0.380896
    28  O   -0.384662
    29  C   -0.034699
    30  C   -0.017317
    31  C   -0.041273
    32  C   -0.117566
    33  C   -0.192996
    34  C    0.001483
    35  C   -0.134468
    36  C   -0.137858
    37  C    0.063951
    38  C   -0.051186
    39  C   -0.004524
    40  C    0.157909
    41  N   -0.299540
    42  C    0.151171
    43  C    0.020613
    44  C   -0.078547
    45  C    0.068115
    46  C    0.000668
    47  C   -0.192442
    48  C   -0.117048
    49  C   -0.041748
    50  C   -0.138187
    51  C   -0.134462
    52  C   -0.014990
    53  C   -0.034020
    54  C   -0.074243
    55  C   -0.105864
    56  C   -0.175523
    57  C    0.132489
    58  C    0.091833
    59  C   -0.248069
    60  C   -0.150500
    61  C   -0.059870
    62  C   -0.070220
    63  C   -0.172222
    64  N    0.487613
    65  O   -0.384618
    66  O   -0.383567
    67  C    0.329701
    68  C   -0.323702
    69  C   -0.193877
    70  C   -0.240428
    71  C   -0.172629
    72  C   -0.170819
    73  C   -0.358419
    74  C   -0.274008
    75  C   -0.289269
    76  C   -0.199736
    77  C   -0.200847
    78  C   -0.194619
    79  C   -0.345977
    80  C   -0.343169
    81  C   -0.009636
    82  N   -0.098036
    83  B    0.375828
    84  F   -0.321288
    85  F   -0.360973
    86  N   -0.094787
    87  C    0.037717
    88  C   -0.216674
    89  C   -0.147809
    90  C   -0.147918
    91  C   -0.159387
    92  C   -0.159140
    93  C    0.052620
    94  C   -0.207294
    95  C   -0.155128
    96  C   -0.148405
    97  C   -0.156867
    98  C   -0.166236
    99  H    0.112505
   100  H    0.105005
   101  H    0.120787
   102  H    0.111802
   103  H    0.102490
   104  H    0.119943
   105  H    0.113426
   106  H    0.123925
   107  H    0.125317
   108  H    0.129298
   109  H    0.128517
   110  H    0.159224
   111  H    0.162751
   112  H    0.155798
   113  H    0.161575
   114  H    0.136751
   115  H    0.092245
   116  H    0.125777
   117  H    0.122906
   118  H    0.111323
   119  H    0.106789
   120  H    0.108368
   121  H    0.116309
   122  H    0.102567
   123  H    0.133098
   124  H    0.131550
   125  H    0.174766
   126  H    0.160066
   127  H    0.158877
   128  H    0.176511
   129  H    0.189443
   130  H    0.165339
   131  H    0.162825
   132  H    0.193867
   133  H    0.159269
   134  H    0.162883
   135  H    0.171925
   136  H    0.177800
   137  H    0.193503
   138  H    0.162546
   139  H    0.163426
   140  H    0.162147
   141  H    0.159876
   142  H    0.159139
   143  H    0.217267
   144  H    0.189398
   145  H    0.164595
   146  H    0.155256
   147  H    0.166619
   148  H    0.126471
   149  H    0.130896
   150  H    0.115501
   151  H    0.110963
   152  H    0.098495
   153  H    0.098497
   154  H    0.094209
   155  H    0.094159
   156  H    0.107122
   157  H    0.117866
   158  H    0.106088
   159  H    0.147517
   160  H    0.160883
   161  H    0.118198
   162  H    0.139839
   163  H    0.111269
   164  H    0.126993
   165  H    0.110552
   166  H    0.107645
   167  H    0.095444
   168  H    0.105297
   169  H    0.121763
   170  H    0.110906
   171  H    0.100278
   172  H    0.164157
   173  H    0.177656
   174  H    0.156661
   175  H    0.161378
   176  H    0.160199
   177  H    0.147121
   178  H    0.190388
   179  H    0.154125
   180  H    0.161518
   181  H    0.159734
   182  H    0.144444
 Sum of Mulliken charges =  -0.00000
 Mulliken charges with hydrogens summed into heavy atoms:
               1
     1  C   -0.004922
     2  C    0.002975
     3  C   -0.003676
     4  C   -0.013702
     5  C    0.053544
     6  C    0.013583
     7  C    0.235438
     8  C   -0.026821
     9  C    0.003733
    10  C    0.041286
    11  C    0.012828
    12  C   -0.009601
    13  C   -0.000796
    14  C   -0.199281
    15  C    0.154706
    16  C   -0.090410
    17  C    0.050338
    18  C   -0.012119
    19  C    0.076398
    20  C    0.051299
    21  C   -0.098814
    22  C    0.017522
    23  C   -0.051566
    24  C    0.105788
    25  C    0.003036
    26  N    0.491153
    27  O   -0.380896
    28  O   -0.384662
    29  C   -0.034699
    30  C   -0.017317
    31  C   -0.041273
    32  C    0.045259
    33  C    0.000871
    34  C    0.001483
    35  C    0.024800
    36  C    0.025025
    37  C    0.063951
    38  C    0.120739
    39  C   -0.004524
    40  C    0.157909
    41  N   -0.299540
    42  C    0.151171
    43  C    0.020613
    44  C    0.099252
    45  C    0.068115
    46  C    0.000668
    47  C    0.001061
    48  C    0.045498
    49  C   -0.041748
    50  C    0.025239
    51  C    0.027685
    52  C   -0.014990
    53  C   -0.034020
    54  C   -0.074243
    55  C    0.054012
    56  C   -0.016384
    57  C    0.132489
    58  C    0.091833
    59  C   -0.248069
    60  C    0.066766
    61  C   -0.059870
    62  C    0.119177
    63  C   -0.007627
    64  N    0.487613
    65  O   -0.384618
    66  O   -0.383567
    67  C    0.329701
    68  C   -0.001827
    69  C    0.063490
    70  C   -0.013965
    71  C    0.024363
    72  C    0.017548
    73  C   -0.027343
    74  C    0.034392
    75  C   -0.031232
    76  C    0.038526
    77  C    0.017351
    78  C    0.006122
    79  C   -0.013031
    80  C   -0.343169
    81  C    0.154522
    82  N   -0.098036
    83  B    0.375828
    84  F   -0.321288
    85  F   -0.360973
    86  N   -0.094787
    87  C    0.037717
    88  C   -0.039017
    89  C    0.008852
    90  C    0.013460
    91  C    0.000813
    92  C   -0.012019
    93  C    0.052620
    94  C   -0.016907
    95  C   -0.001003
    96  C    0.013112
    97  C    0.002867
    98  C   -0.021792
 Electronic spatial extent (au):  <R**2>=         238021.2652
 Charge=             -0.0000 electrons
 Dipole moment (field-independent basis, Debye):
    X=              1.3447    Y=             15.9540    Z=             -0.9215  Tot=             16.0371
 Quadrupole moment (field-independent basis, Debye-Ang):
   XX=           -638.0098   YY=           -641.4725   ZZ=           -574.0959
   XY=             -0.7528   XZ=            -29.8011   YZ=            -11.9513
 Traceless Quadrupole moment (field-independent basis, Debye-Ang):
   XX=            -20.1504   YY=            -23.6131   ZZ=             43.7635
   XY=             -0.7528   XZ=            -29.8011   YZ=            -11.9513
 Octapole moment (field-independent basis, Debye-Ang**2):
  XXX=            431.7954  YYY=           3176.4896  ZZZ=            -47.7616  XYY=            -87.8000
  XXY=           2245.8998  XXZ=           -293.5439  XZZ=            103.5636  YZZ=           -116.7866
  YYZ=              1.3994  XYZ=           -135.9125
 Hexadecapole moment (field-independent basis, Debye-Ang**3):
 XXXX=        -189889.1822 YYYY=        -142396.7861 ZZZZ=         -13258.0137 XXXY=          -1845.8936
 XXXZ=          -2359.0529 YYYX=           4805.4598 YYYZ=           -221.9900 ZZZX=           -242.1959
 ZZZY=            -30.0048 XXYY=         -71725.3118 XXZZ=         -30153.7352 YYZZ=         -26711.1028
 XXYZ=           -192.2862 YYXZ=          -1230.9386 ZZXY=            -22.4168
 N-N= 1.528041672741D+04 E-N=-4.014984007954D+04  KE= 4.102470714534D+03
 Leave Link  601 at Mon Nov 10 15:14:08 2025, MaxMem= 30870077440 cpu:             215.2 elap:               4.2
 (Enter /public/software/gauss/g16/l9999.exe)
 1\1\GINC-CU048\SP\RM062X\def2TZVPP\C86H84B1F2N5O4\BAIDING\10-Nov-2025\
 0\\#p M062X/DEF2TZVPP scrf=(solvent=water) em=GD3\\Energy calculation 
 for M100479012\\0,1\C,0,-11.421902,-0.143091,-4.362079\C,0,-10.093306,
 0.47063,-3.872679\C,0,-8.85787,-0.379677,-4.256147\C,0,-8.798228,-1.76
 7682,-3.574537\C,0,-8.596438,-1.687503,-2.043184\C,0,-8.493065,-3.1004
 36,-1.431134\C,0,-8.320151,-3.18143,0.120154\C,0,-9.39523,-2.373714,0.
 921343\C,0,-10.88319,-2.779731,0.703121\C,0,-11.444476,-3.627896,1.871
 733\C,0,-12.943899,-4.010549,1.750929\C,0,-13.253466,-5.265201,0.89299
 8\C,0,-13.175952,-5.051089,-0.634418\C,0,-6.927387,-2.719324,0.584131\
 C,0,-6.364539,-1.452585,0.540494\C,0,-5.061103,-1.252951,1.05881\C,0,-
 4.351402,-2.335009,1.63164\C,0,-4.926637,-3.599896,1.69918\C,0,-6.2111
 5,-3.788125,1.179547\C,0,-7.043473,-4.989719,1.139931\C,0,-8.275437,-4
 .6626,0.520662\C,0,-9.222009,-5.648777,0.30978\C,0,-8.949362,-6.940315
 ,0.773931\C,0,-7.746696,-7.270467,1.406035\C,0,-6.777351,-6.290907,1.5
 85279\N,0,-9.949451,-7.967511,0.591906\O,0,-11.070726,-7.636683,0.0352
 97\O,0,-9.678975,-9.162386,0.993184\C,0,-4.468699,0.03726,1.004269\C,0
 ,-3.966552,1.143168,0.949438\C,0,-3.380816,2.433758,0.877216\C,0,-2.06
 4201,2.655194,1.336874\C,0,-1.486177,3.913889,1.253959\C,0,-2.205598,5
 .000169,0.71277\C,0,-3.529402,4.780701,0.268321\C,0,-4.10572,3.521833,
 0.341275\C,0,-1.656661,6.350765,0.638627\C,0,-2.437253,7.533566,0.7369
 1\C,0,-1.60109,8.642607,0.629759\C,0,-0.269387,8.114267,0.445379\N,0,0
 .856991,8.778568,0.245762\C,0,2.002624,8.159727,0.012483\C,0,3.276141,
 8.745686,-0.328248\C,0,4.124825,7.678802,-0.611578\C,0,3.415663,6.4615
 06,-0.420164\C,0,4.004801,5.136997,-0.583718\C,0,3.612099,4.027812,0.1
 94912\C,0,4.236816,2.798911,0.037464\C,0,5.272605,2.631653,-0.907725\C
 ,0,5.667582,3.741592,-1.687908\C,0,5.048693,4.971025,-1.521883\C,0,5.9
 11156,1.374592,-1.068055\C,0,6.463714,0.300452,-1.206093\C,0,7.109944,
 -0.954584,-1.365362\C,0,8.102725,-1.115688,-2.362592\C,0,8.750356,-2.3
 36066,-2.529514\C,0,8.405532,-3.403572,-1.693997\C,0,8.933079,-4.76766
 7,-1.624148\C,0,8.257837,-5.460993,-0.585185\C,0,8.628385,-6.756117,-0
 .26867\C,0,9.646852,-7.354506,-1.020026\C,0,10.301276,-6.691221,-2.061
 3\C,0,9.947482,-5.382448,-2.367765\N,0,10.040568,-8.70995,-0.70023\O,0
 ,9.431462,-9.305753,0.269797\O,0,10.978163,-9.254464,-1.400076\C,0,7.1
 85752,-4.573034,0.05624\C,0,7.373744,-4.411054,1.58972\C,0,8.76032,-3.
 876587,2.007256\C,0,8.880453,-3.665793,3.535487\C,0,8.867302,-4.980953
 ,4.345965\C,0,9.034681,-4.740124,5.862231\C,0,9.02505,-6.056783,6.6660
 01\C,0,5.732257,-5.056567,-0.290751\C,0,5.328099,-6.470598,0.218902\C,
 0,5.368302,-7.563259,-0.879288\C,0,4.234651,-7.411113,-1.917584\C,0,4.
 254621,-8.510214,-3.006793\C,0,5.471679,-8.402937,-3.950121\C,0,7.4131
 96,-3.254904,-0.696152\C,0,6.763664,-2.043265,-0.528184\N,0,2.125898,6
 .752061,-0.035263\B,0,0.920414,5.79907,0.243454\F,0,0.72354,4.901476,-
 0.811813\F,0,1.18467,5.069158,1.452448\N,0,-0.335931,6.70053,0.469245\
 C,0,3.603161,10.170791,-0.373072\C,0,2.889126,11.118801,0.389636\C,0,3
 .23551,12.468709,0.34305\C,0,4.29728,12.899579,-0.458311\C,0,5.015369,
 11.968205,-1.216697\C,0,4.674449,10.618303,-1.175417\C,0,-1.998619,10.
 050859,0.695875\C,0,-1.158293,11.086344,0.233979\C,0,-1.573579,12.4156
 85,0.294428\C,0,-2.829538,12.743252,0.814058\C,0,-3.672114,11.726506,1
 .276838\C,0,-3.263904,10.396272,1.219349\H,0,-11.402302,-0.279901,-5.4
 5044\H,0,-11.603481,-1.119012,-3.898646\H,0,-12.267098,0.510295,-4.115
 04\H,0,-9.978874,1.46966,-4.313677\H,0,-10.128103,0.604176,-2.784423\H
 ,0,-8.856418,-0.517413,-5.346399\H,0,-7.945006,0.175156,-3.998463\H,0,
 -9.716196,-2.329431,-3.789856\H,0,-7.964187,-2.336946,-4.00748\H,0,-7.
 681822,-1.118977,-1.839261\H,0,-9.434985,-1.147024,-1.590588\H,0,-9.40
 1882,-3.657143,-1.692184\H,0,-7.647919,-3.63083,-1.88742\H,0,-9.148799
 ,-2.462449,1.986431\H,0,-9.259757,-1.320784,0.651357\H,0,-11.488895,-1
 .867513,0.6258\H,0,-10.995403,-3.312113,-0.244157\H,0,-10.849413,-4.54
 1557,1.985984\H,0,-11.30864,-3.04241,2.79192\H,0,-13.319295,-4.204478,
 2.765015\H,0,-13.511669,-3.152957,1.362194\H,0,-12.565595,-6.074293,1.
 169187\H,0,-14.268349,-5.605252,1.140559\H,0,-12.155629,-4.823306,-0.9
 55165\H,0,-13.499441,-5.95563,-1.163992\H,0,-13.825522,-4.222851,-0.94
 3043\H,0,-6.899023,-0.608909,0.125069\H,0,-3.357083,-2.164404,2.024476
 \H,0,-4.38709,-4.423306,2.151989\H,0,-10.153141,-5.457952,-0.199474\H,
 0,-7.592831,-8.285959,1.738632\H,0,-5.834804,-6.53436,2.059577\H,0,-1.
 505669,1.831242,1.763048\H,0,-0.484316,4.074172,1.621838\H,0,-4.095732
 ,5.597485,-0.16106\H,0,-5.114898,3.36437,-0.017604\H,0,-3.503071,7.544
 279,0.884931\H,0,5.167666,7.741649,-0.871745\H,0,2.833227,4.148737,0.9
 32337\H,0,3.936038,1.957482,0.649052\H,0,6.456967,3.624284,-2.41941\H,
 0,5.355809,5.806431,-2.138382\H,0,8.353922,-0.27331,-2.994623\H,0,9.51
 0562,-2.451673,-3.293008\H,0,8.16791,-7.314822,0.531757\H,0,11.079484,
 -7.208357,-2.602039\H,0,10.456363,-4.849471,-3.161216\H,0,6.598056,-3.
 72062,1.947062\H,0,7.194112,-5.382271,2.062474\H,0,9.539,-4.575954,1.6
 78122\H,0,8.938882,-2.921001,1.499555\H,0,9.818949,-3.135187,3.747101\
 H,0,8.058868,-3.020474,3.877262\H,0,7.925468,-5.517528,4.173318\H,0,9.
 682126,-5.628648,3.992237\H,0,9.978857,-4.207533,6.039043\H,0,8.223355
 ,-4.088621,6.213985\H,0,9.842332,-6.712226,6.341114\H,0,9.145004,-5.86
 6738,7.73904\H,0,8.079267,-6.591909,6.516822\H,0,5.05794,-4.303884,0.1
 35347\H,0,5.615897,-5.011623,-1.379105\H,0,5.974277,-6.768693,1.051939
 \H,0,4.306558,-6.423734,0.618171\H,0,6.342282,-7.536794,-1.379103\H,0,
 5.271841,-8.549391,-0.403686\H,0,3.272465,-7.445774,-1.3878\H,0,4.3031
 23,-6.428802,-2.404335\H,0,4.249431,-9.495916,-2.521841\H,0,3.335123,-
 8.437916,-3.60236\H,0,5.436081,-9.179838,-4.723049\H,0,5.482894,-7.425
 687,-4.448551\H,0,6.411869,-8.516091,-3.399656\H,0,6.001532,-1.912825,
 0.230501\H,0,2.073257,10.790353,1.017362\H,0,2.680307,13.184152,0.9383
 5\H,0,4.563955,13.949353,-0.49119\H,0,5.836798,12.295595,-1.843094\H,0
 ,5.224901,9.905945,-1.778287\H,0,-0.186705,10.83813,-0.167383\H,0,-0.9
 16073,13.197171,-0.068368\H,0,-3.148887,13.777759,0.858954\H,0,-4.6449
 63,11.971545,1.686572\H,0,-3.920866,9.621504,1.595242\\Version=ES64L-G
 16RevA.03\State=1-A\HF=-4126.7573325\RMSD=3.890e-09\Dipole=0.5290529,6
 .2767983,-0.3625436\Quadrupole=-14.9813234,-17.5557846,32.537108,-0.55
 9724,-22.1563662,-8.8854708\PG=C01 [X(C86H84B1F2N5O4)]\\@


 IF YOU'RE NOT PART OF THE SOLUTION,
 THEN YOU'RE PART OF THE PRECIPITATE.
 Job cpu time:       2 days 23 hours 52 minutes  6.0 seconds.
 Elapsed time:       0 days  1 hours  8 minutes 54.0 seconds.
 File lengths (MBytes):  RWF=  11543 Int=      0 D2E=      0 Chk=   1023 Scr=      1
 Normal termination of Gaussian 16 at Mon Nov 10 15:14:10 2025.
