 Entering Gaussian System, Link 0=g16
 Input=M100035858_reduced_sp.gjf
 Output=M100035858_reduced_sp.log
 Initial command:
 /public/software/gauss/g16/l1.exe "/public/home/baiding/1101_v2_sp/tmp_M100035858_reduced_sp_1568608/Gau-28661.inp" -scrdir="/public/home/baiding/1101_v2_sp/tmp_M100035858_reduced_sp_1568608/"
 Entering Link 1 = /public/software/gauss/g16/l1.exe PID=     28662.
  
 Copyright (c) 1988,1990,1992,1993,1995,1998,2003,2009,2016,
            Gaussian, Inc.  All Rights Reserved.
  
 This is part of the Gaussian(R) 16 program.  It is based on
 the Gaussian(R) 09 system (copyright 2009, Gaussian, Inc.),
 the Gaussian(R) 03 system (copyright 2003, Gaussian, Inc.),
 the Gaussian(R) 98 system (copyright 1998, Gaussian, Inc.),
 the Gaussian(R) 94 system (copyright 1995, Gaussian, Inc.),
 the Gaussian 92(TM) system (copyright 1992, Gaussian, Inc.),
 the Gaussian 90(TM) system (copyright 1990, Gaussian, Inc.),
 the Gaussian 88(TM) system (copyright 1988, Gaussian, Inc.),
 the Gaussian 86(TM) system (copyright 1986, Carnegie Mellon
 University), and the Gaussian 82(TM) system (copyright 1983,
 Carnegie Mellon University). Gaussian is a federally registered
 trademark of Gaussian, Inc.
  
 This software contains proprietary and confidential information,
 including trade secrets, belonging to Gaussian, Inc.
  
 This software is provided under written license and may be
 used, copied, transmitted, or stored only in accord with that
 written license.
  
 The following legend is applicable only to US Government
 contracts under FAR:
  
                    RESTRICTED RIGHTS LEGEND
  
 Use, reproduction and disclosure by the US Government is
 subject to restrictions as set forth in subparagraphs (a)
 and (c) of the Commercial Computer Software - Restricted
 Rights clause in FAR 52.227-19.
  
 Gaussian, Inc.
 340 Quinnipiac St., Bldg. 40, Wallingford CT 06492
  
  
 ---------------------------------------------------------------
 Warning -- This program may not be used in any manner that
 competes with the business of Gaussian, Inc. or will provide
 assistance to any competitor of Gaussian, Inc.  The licensee
 of this program is prohibited from giving any competitor of
 Gaussian, Inc. access to this program.  By using this program,
 the user acknowledges that Gaussian, Inc. is engaged in the
 business of creating and licensing software in the field of
 computational chemistry and represents and warrants to the
 licensee that it is not a competitor of Gaussian, Inc. and that
 it will not use this program in any manner prohibited above.
 ---------------------------------------------------------------
  

 Cite this work as:
 Gaussian 16, Revision A.03,
 M. J. Frisch, G. W. Trucks, H. B. Schlegel, G. E. Scuseria, 
 M. A. Robb, J. R. Cheeseman, G. Scalmani, V. Barone, 
 G. A. Petersson, H. Nakatsuji, X. Li, M. Caricato, A. V. Marenich, 
 J. Bloino, B. G. Janesko, R. Gomperts, B. Mennucci, H. P. Hratchian, 
 J. V. Ortiz, A. F. Izmaylov, J. L. Sonnenberg, D. Williams-Young, 
 F. Ding, F. Lipparini, F. Egidi, J. Goings, B. Peng, A. Petrone, 
 T. Henderson, D. Ranasinghe, V. G. Zakrzewski, J. Gao, N. Rega, 
 G. Zheng, W. Liang, M. Hada, M. Ehara, K. Toyota, R. Fukuda, 
 J. Hasegawa, M. Ishida, T. Nakajima, Y. Honda, O. Kitao, H. Nakai, 
 T. Vreven, K. Throssell, J. A. Montgomery, Jr., J. E. Peralta, 
 F. Ogliaro, M. J. Bearpark, J. J. Heyd, E. N. Brothers, K. N. Kudin, 
 V. N. Staroverov, T. A. Keith, R. Kobayashi, J. Normand, 
 K. Raghavachari, A. P. Rendell, J. C. Burant, S. S. Iyengar, 
 J. Tomasi, M. Cossi, J. M. Millam, M. Klene, C. Adamo, R. Cammi, 
 J. W. Ochterski, R. L. Martin, K. Morokuma, O. Farkas, 
 J. B. Foresman, and D. J. Fox, Gaussian, Inc., Wallingford CT, 2016.
 
 ******************************************
 Gaussian 16:  ES64L-G16RevA.03 25-Dec-2016
                 7-Nov-2025 
 ******************************************
 %nprocshared=64
 Will use up to   64 processors via shared memory.
 %mem=230GB
 %chk=M100035858_reduced_sp.chk
 ----------------------------------------------
 #p M062X/DEF2TZVPP scrf=(solvent=water) em=GD3
 ----------------------------------------------
 1/38=1,172=1/1;
 2/12=2,17=6,18=5,40=1/2;
 3/5=44,7=202,11=2,25=1,30=1,70=2201,72=1,74=-55,124=31/1,2,3;
 4//1;
 5/5=2,38=5,53=1/2;
 6/7=2,8=2,9=2,10=2,28=1/1;
 99/5=1,9=1/99;
 Leave Link    1 at Fri Nov  7 11:12:48 2025, MaxMem= 30870077440 cpu:              10.8 elap:               0.2
 (Enter /public/software/gauss/g16/l101.exe)
 -----------------------------------------
 Energy calculation for M100035858_reduced
 -----------------------------------------
 Symbolic Z-matrix:
 Charge = -1 Multiplicity = 2
 C                    -3.06746   9.32105  -1.27481 
 O                    -4.47269   9.11725  -1.1074 
 C                    -4.92171   7.82772  -0.95609 
 C                    -6.30626   7.67308  -0.79516 
 C                    -6.85102   6.40655  -0.63687 
 C                    -6.04721   5.24351  -0.63217 
 C                    -6.68247   3.94193  -0.46124 
 C                    -6.05892   2.73202  -0.41262 
 C                    -6.72791   1.46764  -0.27549 
 C                    -8.10338   1.17733  -0.33557 
 C                    -8.28881  -0.19555  -0.17316 
 C                    -9.62757  -0.87384  -0.24229 
 C                    -6.98579  -0.76243   0.00894 
 N                    -6.05536   0.27056  -0.07635 
 B                    -4.54053   0.1017    0.12346 
 F                    -4.1331    0.63884   1.36806 
 F                    -3.83342   0.79882  -0.89052 
 N                    -4.22293  -1.4021    0.05179 
 C                    -2.95351  -1.95789   0.14374 
 C                    -1.75088  -1.1865    0.00979 
 C                    -0.49035  -1.66437   0.21172 
 C                     0.75137  -0.91935   0.05528 
 C                     1.96976  -1.5538    0.36815 
 C                     3.22528  -0.94256   0.26665 
 N                     4.40777  -1.68177   0.63912 
 C                     5.15873  -1.07929   1.75833 
 C                     6.64308  -1.44295   1.82578 
 O                     7.28681  -1.18609   2.8578 
 N                     7.18855  -2.02573   0.74465 
 C                     8.60008  -2.37425   0.6413 
 C                     8.81683  -3.28823  -0.55815 
 O                     10.20612  -3.60984  -0.59169 
 C                     4.21615  -3.11585   0.88919 
 C                     3.92786  -3.99367  -0.3243 
 O                     3.40734  -5.1085   -0.15242 
 N                     4.30991  -3.52278  -1.5273 
 C                     4.34526  -4.35052  -2.72523 
 C                     5.71187  -4.99296  -2.96065 
 O                     6.17171  -5.76048  -1.84817 
 C                     3.28926   0.3987   -0.23631 
 C                     2.06347   1.03544  -0.51067 
 C                     0.8302    0.41545  -0.37247 
 N                     4.51613   1.10942  -0.42564 
 C                     5.52634   0.51613  -1.30005 
 C                     6.98415   0.7201   -0.87638 
 O                     7.8614    0.2262   -1.62187 
 N                     7.22259   1.41763   0.24042 
 C                     8.51224   1.62588   0.91898 
 C                     9.70607   1.97114   0.032 
 O                     10.26909   0.8503   -0.64173 
 C                     4.44447   2.56525  -0.53913 
 C                     4.31836   3.22315   0.83426 
 O                     4.99784   2.81161   1.79418 
 N                     3.48882   4.27623   0.91842 
 C                     3.37134   5.11128   2.11223 
 C                     4.37279   6.26347   2.13843 
 O                     4.15904   7.20936   1.08934 
 C                    -3.10798  -3.33884   0.36447 
 C                    -4.46738  -3.64392   0.422 
 C                    -5.00382  -5.02332   0.67946 
 C                    -5.16964  -2.41196   0.21329 
 C                    -6.55766  -2.10714   0.1854 
 C                    -7.56464  -3.19287   0.3252 
 C                    -8.34507  -3.30603   1.49073 
 C                    -9.28777  -4.31766   1.63068 
 C                    -9.47246  -5.24346   0.58809 
 C                    -8.70537  -5.14367  -0.58657 
 C                    -7.76371  -4.12894  -0.70668 
 C                    -10.44018  -6.28585   0.72157 
 N                    -11.23029  -7.13784   0.83021 
 C                    -4.65901   5.42852  -0.79689 
 C                    -4.09743   6.69388  -0.95567 
 H                    -2.69647   8.82447  -2.17829 
 H                    -2.93193   10.39892  -1.37365 
 H                    -2.50533   8.96273  -0.40531 
 H                    -6.93766   8.55632  -0.79707 
 H                    -7.92608   6.30434  -0.51292 
 H                    -7.76682   3.97412  -0.36487 
 H                    -4.97789   2.68968  -0.49306 
 H                    -8.88866   1.9001   -0.51705 
 H                    -9.62546  -1.73484  -0.91812 
 H                    -9.97019  -1.23948   0.73244 
 H                    -10.37728  -0.16522  -0.60765 
 H                    -1.88436  -0.15115  -0.28622 
 H                    -0.36805  -2.70024   0.52443 
 H                     1.90244  -2.57354   0.72422 
 H                     5.09792   0.00805   1.68859 
 H                     4.72458  -1.36051   2.72848 
 H                     6.60864  -2.10869  -0.08095 
 H                     9.21744  -1.4762    0.52396 
 H                     8.91207  -2.87957   1.5601 
 H                     8.19783  -4.1912   -0.4647 
 H                     8.50967  -2.76392  -1.47524 
 H                     10.35123  -4.17101  -1.36625 
 H                     5.15352  -3.50469   1.29633 
 H                     3.45322  -3.32843   1.64813 
 H                     4.79321  -2.63371  -1.54203 
 H                     3.58007  -5.1225   -2.61661 
 H                     4.08427  -3.73828  -3.59356 
 H                     5.65479  -5.60346  -3.87318 
 H                     6.46889  -4.21866  -3.12258 
 H                     5.48409  -6.40856  -1.63448 
 H                     2.06211   2.05596  -0.86813 
 H                    -0.06544   0.97464  -0.62291 
 H                     5.37621  -0.5613   -1.34668 
 H                     5.4474    0.89013  -2.33141 
 H                     6.40793   1.71954   0.77727 
 H                     8.3437    2.45683   1.6093 
 H                     8.75656   0.74492   1.52338 
 H                     9.42596   2.76682  -0.67446 
 H                     10.48741   2.37294   0.68512 
 H                     9.51438   0.47702  -1.15115 
 H                     5.39677   2.9183   -0.94425 
 H                     3.68161   2.92545  -1.23767 
 H                     2.99349   4.56154   0.08331 
 H                     2.35284   5.50589   2.14527 
 H                     3.5233    4.47866   2.98992 
 H                     4.25023   6.80907   3.07926 
 H                     5.39599   5.86631   2.10683 
 H                     4.41001   6.78059   0.25838 
 H                    -2.29998  -4.0525    0.46385 
 H                    -5.45472  -5.47904  -0.2094 
 H                    -4.1877   -5.67655   1.00338 
 H                    -5.76943  -5.03364   1.46159 
 H                    -8.20075  -2.59543   2.29807 
 H                    -9.87713  -4.40149   2.5375 
 H                    -8.85589  -5.85471  -1.39181 
 H                    -7.17724  -4.05018  -1.6162 
 H                    -3.99577   4.56899  -0.80411 
 H                    -3.02508   6.78585  -1.08007 
 
 ITRead=  0  0  0  0  0  0  0  0  0  0  0  0  0  0  0  0  0  0  0  0
 ITRead=  0  0  0  0  0  0  0  0  0  0  0  0  0  0  0  0  0  0  0  0
 ITRead=  0  0  0  0  0  0  0  0  0  0  0  0  0  0  0  0  0  0  0  0
 ITRead=  0  0  0  0  0  0  0  0  0  0  0  0  0  0  0  0  0  0  0  0
 ITRead=  0  0  0  0  0  0  0  0  0  0  0  0  0  0  0  0  0  0  0  0
 ITRead=  0  0  0  0  0  0  0  0  0  0  0  0  0  0  0  0  0  0  0  0
 ITRead=  0  0  0  0  0  0  0  0  0  0
 MicOpt= -1 -1 -1 -1 -1 -1 -1 -1 -1 -1 -1 -1 -1 -1 -1 -1 -1 -1 -1 -1
 MicOpt= -1 -1 -1 -1 -1 -1 -1 -1 -1 -1 -1 -1 -1 -1 -1 -1 -1 -1 -1 -1
 MicOpt= -1 -1 -1 -1 -1 -1 -1 -1 -1 -1 -1 -1 -1 -1 -1 -1 -1 -1 -1 -1
 MicOpt= -1 -1 -1 -1 -1 -1 -1 -1 -1 -1 -1 -1 -1 -1 -1 -1 -1 -1 -1 -1
 MicOpt= -1 -1 -1 -1 -1 -1 -1 -1 -1 -1 -1 -1 -1 -1 -1 -1 -1 -1 -1 -1
 MicOpt= -1 -1 -1 -1 -1 -1 -1 -1 -1 -1 -1 -1 -1 -1 -1 -1 -1 -1 -1 -1
 MicOpt= -1 -1 -1 -1 -1 -1 -1 -1 -1 -1
 NAtoms=    130 NQM=      130 NQMF=       0 NMMI=      0 NMMIF=      0
                NMic=       0 NMicF=      0.
                    Isotopes and Nuclear Properties:
 (Nuclear quadrupole moments (NQMom) in fm**2, nuclear magnetic moments (NMagM)
  in nuclear magnetons)

  Atom         1           2           3           4           5           6           7           8           9          10
 IAtWgt=          12          16          12          12          12          12          12          12          12          12
 AtmWgt=  12.0000000  15.9949146  12.0000000  12.0000000  12.0000000  12.0000000  12.0000000  12.0000000  12.0000000  12.0000000
 NucSpn=           0           0           0           0           0           0           0           0           0           0
 AtZEff=  -0.0000000  -0.0000000  -0.0000000  -0.0000000  -0.0000000  -0.0000000  -0.0000000  -0.0000000  -0.0000000  -0.0000000
 NQMom=    0.0000000   0.0000000   0.0000000   0.0000000   0.0000000   0.0000000   0.0000000   0.0000000   0.0000000   0.0000000
 NMagM=    0.0000000   0.0000000   0.0000000   0.0000000   0.0000000   0.0000000   0.0000000   0.0000000   0.0000000   0.0000000
 AtZNuc=   6.0000000   8.0000000   6.0000000   6.0000000   6.0000000   6.0000000   6.0000000   6.0000000   6.0000000   6.0000000

  Atom        11          12          13          14          15          16          17          18          19          20
 IAtWgt=          12          12          12          14          11          19          19          14          12          12
 AtmWgt=  12.0000000  12.0000000  12.0000000  14.0030740  11.0093053  18.9984033  18.9984033  14.0030740  12.0000000  12.0000000
 NucSpn=           0           0           0           2           3           1           1           2           0           0
 AtZEff=  -0.0000000  -0.0000000  -0.0000000  -0.0000000  -0.0000000  -0.0000000  -0.0000000  -0.0000000  -0.0000000  -0.0000000
 NQMom=    0.0000000   0.0000000   0.0000000   2.0440000   4.0590000   0.0000000   0.0000000   2.0440000   0.0000000   0.0000000
 NMagM=    0.0000000   0.0000000   0.0000000   0.4037610   2.6886370   2.6288670   2.6288670   0.4037610   0.0000000   0.0000000
 AtZNuc=   6.0000000   6.0000000   6.0000000   7.0000000   5.0000000   9.0000000   9.0000000   7.0000000   6.0000000   6.0000000

  Atom        21          22          23          24          25          26          27          28          29          30
 IAtWgt=          12          12          12          12          14          12          12          16          14          12
 AtmWgt=  12.0000000  12.0000000  12.0000000  12.0000000  14.0030740  12.0000000  12.0000000  15.9949146  14.0030740  12.0000000
 NucSpn=           0           0           0           0           2           0           0           0           2           0
 AtZEff=  -0.0000000  -0.0000000  -0.0000000  -0.0000000  -0.0000000  -0.0000000  -0.0000000  -0.0000000  -0.0000000  -0.0000000
 NQMom=    0.0000000   0.0000000   0.0000000   0.0000000   2.0440000   0.0000000   0.0000000   0.0000000   2.0440000   0.0000000
 NMagM=    0.0000000   0.0000000   0.0000000   0.0000000   0.4037610   0.0000000   0.0000000   0.0000000   0.4037610   0.0000000
 AtZNuc=   6.0000000   6.0000000   6.0000000   6.0000000   7.0000000   6.0000000   6.0000000   8.0000000   7.0000000   6.0000000

  Atom        31          32          33          34          35          36          37          38          39          40
 IAtWgt=          12          16          12          12          16          14          12          12          16          12
 AtmWgt=  12.0000000  15.9949146  12.0000000  12.0000000  15.9949146  14.0030740  12.0000000  12.0000000  15.9949146  12.0000000
 NucSpn=           0           0           0           0           0           2           0           0           0           0
 AtZEff=  -0.0000000  -0.0000000  -0.0000000  -0.0000000  -0.0000000  -0.0000000  -0.0000000  -0.0000000  -0.0000000  -0.0000000
 NQMom=    0.0000000   0.0000000   0.0000000   0.0000000   0.0000000   2.0440000   0.0000000   0.0000000   0.0000000   0.0000000
 NMagM=    0.0000000   0.0000000   0.0000000   0.0000000   0.0000000   0.4037610   0.0000000   0.0000000   0.0000000   0.0000000
 AtZNuc=   6.0000000   8.0000000   6.0000000   6.0000000   8.0000000   7.0000000   6.0000000   6.0000000   8.0000000   6.0000000

  Atom        41          42          43          44          45          46          47          48          49          50
 IAtWgt=          12          12          14          12          12          16          14          12          12          16
 AtmWgt=  12.0000000  12.0000000  14.0030740  12.0000000  12.0000000  15.9949146  14.0030740  12.0000000  12.0000000  15.9949146
 NucSpn=           0           0           2           0           0           0           2           0           0           0
 AtZEff=  -0.0000000  -0.0000000  -0.0000000  -0.0000000  -0.0000000  -0.0000000  -0.0000000  -0.0000000  -0.0000000  -0.0000000
 NQMom=    0.0000000   0.0000000   2.0440000   0.0000000   0.0000000   0.0000000   2.0440000   0.0000000   0.0000000   0.0000000
 NMagM=    0.0000000   0.0000000   0.4037610   0.0000000   0.0000000   0.0000000   0.4037610   0.0000000   0.0000000   0.0000000
 AtZNuc=   6.0000000   6.0000000   7.0000000   6.0000000   6.0000000   8.0000000   7.0000000   6.0000000   6.0000000   8.0000000

  Atom        51          52          53          54          55          56          57          58          59          60
 IAtWgt=          12          12          16          14          12          12          16          12          12          12
 AtmWgt=  12.0000000  12.0000000  15.9949146  14.0030740  12.0000000  12.0000000  15.9949146  12.0000000  12.0000000  12.0000000
 NucSpn=           0           0           0           2           0           0           0           0           0           0
 AtZEff=  -0.0000000  -0.0000000  -0.0000000  -0.0000000  -0.0000000  -0.0000000  -0.0000000  -0.0000000  -0.0000000  -0.0000000
 NQMom=    0.0000000   0.0000000   0.0000000   2.0440000   0.0000000   0.0000000   0.0000000   0.0000000   0.0000000   0.0000000
 NMagM=    0.0000000   0.0000000   0.0000000   0.4037610   0.0000000   0.0000000   0.0000000   0.0000000   0.0000000   0.0000000
 AtZNuc=   6.0000000   6.0000000   8.0000000   7.0000000   6.0000000   6.0000000   8.0000000   6.0000000   6.0000000   6.0000000

  Atom        61          62          63          64          65          66          67          68          69          70
 IAtWgt=          12          12          12          12          12          12          12          12          12          14
 AtmWgt=  12.0000000  12.0000000  12.0000000  12.0000000  12.0000000  12.0000000  12.0000000  12.0000000  12.0000000  14.0030740
 NucSpn=           0           0           0           0           0           0           0           0           0           2
 AtZEff=  -0.0000000  -0.0000000  -0.0000000  -0.0000000  -0.0000000  -0.0000000  -0.0000000  -0.0000000  -0.0000000  -0.0000000
 NQMom=    0.0000000   0.0000000   0.0000000   0.0000000   0.0000000   0.0000000   0.0000000   0.0000000   0.0000000   2.0440000
 NMagM=    0.0000000   0.0000000   0.0000000   0.0000000   0.0000000   0.0000000   0.0000000   0.0000000   0.0000000   0.4037610
 AtZNuc=   6.0000000   6.0000000   6.0000000   6.0000000   6.0000000   6.0000000   6.0000000   6.0000000   6.0000000   7.0000000

  Atom        71          72          73          74          75          76          77          78          79          80
 IAtWgt=          12          12           1           1           1           1           1           1           1           1
 AtmWgt=  12.0000000  12.0000000   1.0078250   1.0078250   1.0078250   1.0078250   1.0078250   1.0078250   1.0078250   1.0078250
 NucSpn=           0           0           1           1           1           1           1           1           1           1
 AtZEff=  -0.0000000  -0.0000000  -0.0000000  -0.0000000  -0.0000000  -0.0000000  -0.0000000  -0.0000000  -0.0000000  -0.0000000
 NQMom=    0.0000000   0.0000000   0.0000000   0.0000000   0.0000000   0.0000000   0.0000000   0.0000000   0.0000000   0.0000000
 NMagM=    0.0000000   0.0000000   2.7928460   2.7928460   2.7928460   2.7928460   2.7928460   2.7928460   2.7928460   2.7928460
 AtZNuc=   6.0000000   6.0000000   1.0000000   1.0000000   1.0000000   1.0000000   1.0000000   1.0000000   1.0000000   1.0000000

  Atom        81          82          83          84          85          86          87          88          89          90
 IAtWgt=           1           1           1           1           1           1           1           1           1           1
 AtmWgt=   1.0078250   1.0078250   1.0078250   1.0078250   1.0078250   1.0078250   1.0078250   1.0078250   1.0078250   1.0078250
 NucSpn=           1           1           1           1           1           1           1           1           1           1
 AtZEff=  -0.0000000  -0.0000000  -0.0000000  -0.0000000  -0.0000000  -0.0000000  -0.0000000  -0.0000000  -0.0000000  -0.0000000
 NQMom=    0.0000000   0.0000000   0.0000000   0.0000000   0.0000000   0.0000000   0.0000000   0.0000000   0.0000000   0.0000000
 NMagM=    2.7928460   2.7928460   2.7928460   2.7928460   2.7928460   2.7928460   2.7928460   2.7928460   2.7928460   2.7928460
 AtZNuc=   1.0000000   1.0000000   1.0000000   1.0000000   1.0000000   1.0000000   1.0000000   1.0000000   1.0000000   1.0000000

  Atom        91          92          93          94          95          96          97          98          99         100
 IAtWgt=           1           1           1           1           1           1           1           1           1           1
 AtmWgt=   1.0078250   1.0078250   1.0078250   1.0078250   1.0078250   1.0078250   1.0078250   1.0078250   1.0078250   1.0078250
 NucSpn=           1           1           1           1           1           1           1           1           1           1
 AtZEff=  -0.0000000  -0.0000000  -0.0000000  -0.0000000  -0.0000000  -0.0000000  -0.0000000  -0.0000000  -0.0000000  -0.0000000
 NQMom=    0.0000000   0.0000000   0.0000000   0.0000000   0.0000000   0.0000000   0.0000000   0.0000000   0.0000000   0.0000000
 NMagM=    2.7928460   2.7928460   2.7928460   2.7928460   2.7928460   2.7928460   2.7928460   2.7928460   2.7928460   2.7928460
 AtZNuc=   1.0000000   1.0000000   1.0000000   1.0000000   1.0000000   1.0000000   1.0000000   1.0000000   1.0000000   1.0000000

  Atom       101         102         103         104         105         106         107         108         109         110
 IAtWgt=           1           1           1           1           1           1           1           1           1           1
 AtmWgt=   1.0078250   1.0078250   1.0078250   1.0078250   1.0078250   1.0078250   1.0078250   1.0078250   1.0078250   1.0078250
 NucSpn=           1           1           1           1           1           1           1           1           1           1
 AtZEff=  -0.0000000  -0.0000000  -0.0000000  -0.0000000  -0.0000000  -0.0000000  -0.0000000  -0.0000000  -0.0000000  -0.0000000
 NQMom=    0.0000000   0.0000000   0.0000000   0.0000000   0.0000000   0.0000000   0.0000000   0.0000000   0.0000000   0.0000000
 NMagM=    2.7928460   2.7928460   2.7928460   2.7928460   2.7928460   2.7928460   2.7928460   2.7928460   2.7928460   2.7928460
 AtZNuc=   1.0000000   1.0000000   1.0000000   1.0000000   1.0000000   1.0000000   1.0000000   1.0000000   1.0000000   1.0000000

  Atom       111         112         113         114         115         116         117         118         119         120
 IAtWgt=           1           1           1           1           1           1           1           1           1           1
 AtmWgt=   1.0078250   1.0078250   1.0078250   1.0078250   1.0078250   1.0078250   1.0078250   1.0078250   1.0078250   1.0078250
 NucSpn=           1           1           1           1           1           1           1           1           1           1
 AtZEff=  -0.0000000  -0.0000000  -0.0000000  -0.0000000  -0.0000000  -0.0000000  -0.0000000  -0.0000000  -0.0000000  -0.0000000
 NQMom=    0.0000000   0.0000000   0.0000000   0.0000000   0.0000000   0.0000000   0.0000000   0.0000000   0.0000000   0.0000000
 NMagM=    2.7928460   2.7928460   2.7928460   2.7928460   2.7928460   2.7928460   2.7928460   2.7928460   2.7928460   2.7928460
 AtZNuc=   1.0000000   1.0000000   1.0000000   1.0000000   1.0000000   1.0000000   1.0000000   1.0000000   1.0000000   1.0000000

  Atom       121         122         123         124         125         126         127         128         129         130
 IAtWgt=           1           1           1           1           1           1           1           1           1           1
 AtmWgt=   1.0078250   1.0078250   1.0078250   1.0078250   1.0078250   1.0078250   1.0078250   1.0078250   1.0078250   1.0078250
 NucSpn=           1           1           1           1           1           1           1           1           1           1
 AtZEff=  -0.0000000  -0.0000000  -0.0000000  -0.0000000  -0.0000000  -0.0000000  -0.0000000  -0.0000000  -0.0000000  -0.0000000
 NQMom=    0.0000000   0.0000000   0.0000000   0.0000000   0.0000000   0.0000000   0.0000000   0.0000000   0.0000000   0.0000000
 NMagM=    2.7928460   2.7928460   2.7928460   2.7928460   2.7928460   2.7928460   2.7928460   2.7928460   2.7928460   2.7928460
 AtZNuc=   1.0000000   1.0000000   1.0000000   1.0000000   1.0000000   1.0000000   1.0000000   1.0000000   1.0000000   1.0000000
 Leave Link  101 at Fri Nov  7 11:12:48 2025, MaxMem= 30870077440 cpu:               4.7 elap:               0.1
 (Enter /public/software/gauss/g16/l202.exe)
 Stoichiometry    C51H58BF2N9O9(1-,2)
 Framework group  C1[X(C51H58BF2N9O9)]
 Deg. of freedom   384
 Full point group                 C1      NOp   1
 Largest Abelian subgroup         C1      NOp   1
 Largest concise Abelian subgroup C1      NOp   1
                         Standard orientation:                         
 ---------------------------------------------------------------------
 Center     Atomic      Atomic             Coordinates (Angstroms)
 Number     Number       Type             X           Y           Z
 ---------------------------------------------------------------------
      1          6           0       -3.067457    9.321047   -1.274808
      2          8           0       -4.472690    9.117250   -1.107401
      3          6           0       -4.921713    7.827718   -0.956085
      4          6           0       -6.306260    7.673084   -0.795156
      5          6           0       -6.851016    6.406548   -0.636872
      6          6           0       -6.047211    5.243514   -0.632169
      7          6           0       -6.682472    3.941926   -0.461238
      8          6           0       -6.058924    2.732016   -0.412618
      9          6           0       -6.727907    1.467642   -0.275491
     10          6           0       -8.103384    1.177329   -0.335570
     11          6           0       -8.288808   -0.195552   -0.173160
     12          6           0       -9.627571   -0.873841   -0.242294
     13          6           0       -6.985794   -0.762431    0.008941
     14          7           0       -6.055357    0.270559   -0.076350
     15          5           0       -4.540525    0.101704    0.123461
     16          9           0       -4.133103    0.638839    1.368059
     17          9           0       -3.833418    0.798818   -0.890518
     18          7           0       -4.222933   -1.402100    0.051790
     19          6           0       -2.953509   -1.957892    0.143736
     20          6           0       -1.750880   -1.186498    0.009792
     21          6           0       -0.490345   -1.664368    0.211715
     22          6           0        0.751366   -0.919354    0.055275
     23          6           0        1.969761   -1.553803    0.368150
     24          6           0        3.225280   -0.942559    0.266648
     25          7           0        4.407765   -1.681770    0.639117
     26          6           0        5.158729   -1.079287    1.758325
     27          6           0        6.643082   -1.442951    1.825784
     28          8           0        7.286813   -1.186085    2.857800
     29          7           0        7.188549   -2.025730    0.744649
     30          6           0        8.600083   -2.374254    0.641304
     31          6           0        8.816829   -3.288233   -0.558154
     32          8           0       10.206117   -3.609843   -0.591693
     33          6           0        4.216148   -3.115850    0.889189
     34          6           0        3.927861   -3.993674   -0.324297
     35          8           0        3.407335   -5.108499   -0.152419
     36          7           0        4.309905   -3.522778   -1.527295
     37          6           0        4.345260   -4.350520   -2.725225
     38          6           0        5.711865   -4.992960   -2.960646
     39          8           0        6.171707   -5.760476   -1.848168
     40          6           0        3.289257    0.398703   -0.236314
     41          6           0        2.063469    1.035442   -0.510671
     42          6           0        0.830204    0.415448   -0.372474
     43          7           0        4.516127    1.109416   -0.425642
     44          6           0        5.526342    0.516127   -1.300046
     45          6           0        6.984149    0.720102   -0.876380
     46          8           0        7.861399    0.226203   -1.621869
     47          7           0        7.222586    1.417632    0.240421
     48          6           0        8.512237    1.625878    0.918979
     49          6           0        9.706071    1.971141    0.032003
     50          8           0       10.269090    0.850303   -0.641727
     51          6           0        4.444471    2.565247   -0.539133
     52          6           0        4.318355    3.223150    0.834259
     53          8           0        4.997838    2.811607    1.794180
     54          7           0        3.488818    4.276228    0.918420
     55          6           0        3.371337    5.111284    2.112234
     56          6           0        4.372785    6.263469    2.138429
     57          8           0        4.159036    7.209358    1.089336
     58          6           0       -3.107976   -3.338837    0.364468
     59          6           0       -4.467377   -3.643921    0.421998
     60          6           0       -5.003824   -5.023315    0.679456
     61          6           0       -5.169639   -2.411961    0.213286
     62          6           0       -6.557656   -2.107138    0.185398
     63          6           0       -7.564641   -3.192872    0.325201
     64          6           0       -8.345066   -3.306029    1.490731
     65          6           0       -9.287768   -4.317665    1.630678
     66          6           0       -9.472461   -5.243456    0.588091
     67          6           0       -8.705369   -5.143667   -0.586567
     68          6           0       -7.763711   -4.128941   -0.706682
     69          6           0      -10.440178   -6.285848    0.721572
     70          7           0      -11.230292   -7.137838    0.830207
     71          6           0       -4.659007    5.428520   -0.796886
     72          6           0       -4.097433    6.693881   -0.955673
     73          1           0       -2.696472    8.824473   -2.178292
     74          1           0       -2.931932   10.398922   -1.373649
     75          1           0       -2.505329    8.962731   -0.405313
     76          1           0       -6.937657    8.556316   -0.797071
     77          1           0       -7.926076    6.304343   -0.512915
     78          1           0       -7.766824    3.974121   -0.364871
     79          1           0       -4.977885    2.689679   -0.493059
     80          1           0       -8.888664    1.900100   -0.517045
     81          1           0       -9.625458   -1.734844   -0.918118
     82          1           0       -9.970185   -1.239479    0.732442
     83          1           0      -10.377276   -0.165215   -0.607650
     84          1           0       -1.884357   -0.151149   -0.286219
     85          1           0       -0.368054   -2.700239    0.524430
     86          1           0        1.902444   -2.573543    0.724218
     87          1           0        5.097918    0.008051    1.688586
     88          1           0        4.724578   -1.360505    2.728478
     89          1           0        6.608643   -2.108695   -0.080949
     90          1           0        9.217442   -1.476199    0.523964
     91          1           0        8.912065   -2.879572    1.560102
     92          1           0        8.197828   -4.191204   -0.464696
     93          1           0        8.509668   -2.763916   -1.475239
     94          1           0       10.351233   -4.171011   -1.366249
     95          1           0        5.153518   -3.504688    1.296330
     96          1           0        3.453215   -3.328426    1.648130
     97          1           0        4.793211   -2.633713   -1.542028
     98          1           0        3.580067   -5.122496   -2.616605
     99          1           0        4.084265   -3.738276   -3.593559
    100          1           0        5.654791   -5.603462   -3.873179
    101          1           0        6.468894   -4.218664   -3.122583
    102          1           0        5.484095   -6.408557   -1.634478
    103          1           0        2.062112    2.055958   -0.868127
    104          1           0       -0.065436    0.974641   -0.622910
    105          1           0        5.376212   -0.561295   -1.346676
    106          1           0        5.447399    0.890128   -2.331409
    107          1           0        6.407930    1.719535    0.777272
    108          1           0        8.343699    2.456830    1.609298
    109          1           0        8.756557    0.744920    1.523383
    110          1           0        9.425963    2.766818   -0.674461
    111          1           0       10.487407    2.372937    0.685119
    112          1           0        9.514376    0.477020   -1.151145
    113          1           0        5.396765    2.918296   -0.944253
    114          1           0        3.681614    2.925446   -1.237670
    115          1           0        2.993485    4.561535    0.083308
    116          1           0        2.352839    5.505885    2.145272
    117          1           0        3.523297    4.478660    2.989917
    118          1           0        4.250235    6.809068    3.079264
    119          1           0        5.395990    5.866310    2.106825
    120          1           0        4.410013    6.780593    0.258381
    121          1           0       -2.299980   -4.052495    0.463853
    122          1           0       -5.454725   -5.479035   -0.209398
    123          1           0       -4.187701   -5.676551    1.003385
    124          1           0       -5.769426   -5.033639    1.461593
    125          1           0       -8.200752   -2.595431    2.298068
    126          1           0       -9.877127   -4.401490    2.537502
    127          1           0       -8.855892   -5.854710   -1.391807
    128          1           0       -7.177236   -4.050184   -1.616203
    129          1           0       -3.995770    4.568994   -0.804109
    130          1           0       -3.025081    6.785845   -1.080068
 ---------------------------------------------------------------------
 Rotational constants (GHZ):           0.0305370           0.0127537           0.0094073
 Leave Link  202 at Fri Nov  7 11:12:48 2025, MaxMem= 30870077440 cpu:               0.2 elap:               0.0
 (Enter /public/software/gauss/g16/l301.exe)
 Standard basis: def2TZVPP (5D, 7F)
 Ernie: Thresh=  0.10000D-02 Tol=  0.10000D-05 Strict=F.
 There are  3462 symmetry adapted cartesian basis functions of A   symmetry.
 There are  3044 symmetry adapted basis functions of A   symmetry.
  3044 basis functions,  4658 primitive gaussians,  3462 cartesian basis functions
   262 alpha electrons      261 beta electrons
       nuclear repulsion energy     10913.6538354114 Hartrees.
 IExCor= 4336 DFT=T Ex+Corr=M062X ExCW=0 ScaHFX=  0.540000
 ScaDFX=  1.000000  1.000000  1.000000  1.000000 ScalE2=  1.000000  1.000000
 IRadAn=      5 IRanWt=     -1 IRanGd=            0 ICorTp=0 IEmpDi=131
 NAtoms=  130 NActive=  130 NUniq=  130 SFac= 1.00D+00 NAtFMM=   60 NAOKFM=T Big=T
 Integral buffers will be    131072 words long.
 Raffenetti 2 integral format.
 Two-electron integral symmetry is turned on.
 R6Disp:  Grimme-D3 Dispersion energy=       -0.0142474524 Hartrees.
 Nuclear repulsion after empirical dispersion term =    10913.6395879590 Hartrees.
 ------------------------------------------------------------------------------
 Polarizable Continuum Model (PCM)
 =================================
 Model                : PCM.
 Atomic radii         : UFF (Universal Force Field).
 Polarization charges : Total charges.
 Charge compensation  : None.
 Solution method      : On-the-fly selection.
 Cavity type          : Scaled VdW (van der Waals Surface) (Alpha=1.100).
 Cavity algorithm     : GePol (No added spheres)
                        Default sphere list used, NSphG=  130.
                        Lebedev-Laikov grids with approx.  5.0 points / Ang**2.
                        Smoothing algorithm: York/Karplus (Gamma=1.0000).
                        Polarization charges: spherical gaussians, with
                                              point-specific exponents (IZeta= 3).
                        Self-potential: point-specific (ISelfS= 7).
                        Self-field    : sphere-specific E.n sum rule (ISelfD= 2).
 Solvent              : Water, Eps=  78.355300 Eps(inf)=   1.777849
 ------------------------------------------------------------------------------
 GePol: Number of generator spheres                  =     130
 GePol: Total number of spheres                      =     130
 GePol: Number of exposed spheres                    =     130 (100.00%)
 GePol: Number of points                             =    8717
 GePol: Average weight of points                     =       0.13
 GePol: Minimum weight of points                     =   0.11D-11
 GePol: Maximum weight of points                     =    0.20577
 GePol: Number of points with low weight             =     589
 GePol: Fraction of low-weight points (<1% of avg)   =       6.76%
 GePol: Cavity surface area                          =   1093.711 Ang**2
 GePol: Cavity volume                                =   1312.384 Ang**3
 Leave Link  301 at Fri Nov  7 11:12:48 2025, MaxMem= 30870077440 cpu:               4.5 elap:               0.1
 (Enter /public/software/gauss/g16/l302.exe)
 NPDir=0 NMtPBC=     1 NCelOv=     1 NCel=       1 NClECP=     1 NCelD=      1
         NCelK=      1 NCelE2=     1 NClLst=     1 CellRange=     0.0.
 One-electron integrals computed using PRISM.
 One-electron integral symmetry used in STVInt
   1 Symmetry operations used in ECPInt.
 ECPInt:  NShTT=  650370 NPrTT= 1815318 LenC2=  315493 LenP2D=  576545.
 LDataN:  DoStor=T MaxTD1= 6 Len=  172
 Number of processors reduced to  53 by ecpmxn.
 NBasis=  3044 RedAO= T EigKep=  3.58D-06  NBF=  3044
 NBsUse=  3044 1.00D-06 EigRej= -1.00D+00 NBFU=  3044
 Precomputing XC quadrature grid using
 IXCGrd= 4 IRadAn=           5 IRanWt=          -1 IRanGd=           0 AccXCQ= 0.00D+00.
 Generated NRdTot=       0 NPtTot=           0 NUsed=           0 NTot=          32
 NSgBfM=  3032  3032  3032  3032  3032 MxSgAt=   130 MxSgA2=   130.
 Leave Link  302 at Fri Nov  7 11:13:24 2025, MaxMem= 30870077440 cpu:            2271.8 elap:              35.6
 (Enter /public/software/gauss/g16/l303.exe)
 DipDrv:  MaxL=1.
 Leave Link  303 at Fri Nov  7 11:13:25 2025, MaxMem= 30870077440 cpu:              65.5 elap:               1.1
 (Enter /public/software/gauss/g16/l401.exe)
 ExpMin= 6.06D-02 ExpMax= 3.55D+04 ExpMxC= 1.21D+03 IAcc=3 IRadAn=         5 AccDes= 0.00D+00
 Harris functional with IExCor= 1009 and IRadAn=       5 diagonalized for initial guess.
 HarFok:  IExCor= 1009 AccDes= 0.00D+00 IRadAn=         5 IDoV= 1 UseB2=F ITyADJ=14
 ICtDFT=  3500011 ScaDFX=  1.000000  1.000000  1.000000  1.000000
 FoFCou: FMM=F IPFlag=           0 FMFlag=      100000 FMFlg1=        2001
         NFxFlg=           0 DoJE=T BraDBF=F KetDBF=T FulRan=T
         wScrn=  0.000000 ICntrl=       500 IOpCl=  0 I1Cent=   200000004 NGrid=           0
         NMat0=    1 NMatS0=      1 NMatT0=    0 NMatD0=    1 NMtDS0=    0 NMtDT0=    0
 Petite list used in FoFCou.
 Harris En= -3371.32340455087    
 JPrj=0 DoOrth=F DoCkMO=F.
 Initial guess <Sx>= 0.0000 <Sy>= 0.0000 <Sz>= 0.5000 <S**2>= 0.7500 S= 0.5000
 Leave Link  401 at Fri Nov  7 11:13:55 2025, MaxMem= 30870077440 cpu:            1870.0 elap:              29.3
 (Enter /public/software/gauss/g16/l502.exe)
 Integral symmetry usage will be decided dynamically.
 UHF open shell SCF:
 Using DIIS extrapolation, IDIIS=  1040.
 NGot= 30870077440 LenX= 30845855826 LenY= 30833866920
 Requested convergence on RMS density matrix=1.00D-08 within 128 cycles.
 Requested convergence on MAX density matrix=1.00D-06.
 Requested convergence on             energy=1.00D-06.
 No special actions if energy rises.
 Fock matrices will be formed incrementally for  20 cycles.

 Cycle   1  Pass 1  IDiag  1:
 FoFJK:  IHMeth= 1 ICntrl=       0 DoSepK=F KAlg= 0 I1Cent=           0 FoldK=F
 IRaf= 440000000 NMat=       1 IRICut=       1 DoRegI=T DoRafI=F ISym2E= 0 IDoP0=0 IntGTp=1.
 FoFCou: FMM=T IPFlag=           0 FMFlag=      100000 FMFlg1=        2001
         NFxFlg=           0 DoJE=F BraDBF=F KetDBF=F FulRan=T
         wScrn=  0.000000 ICntrl=         0 IOpCl=  1 I1Cent=           0 NGrid=           0
         NMat0=    1 NMatS0=      1 NMatT0=    0 NMatD0=    1 NMtDS0=    0 NMtDT0=    0
 Symmetry not used in FoFCou.
 FMM levels:  10  Number of levels for PrismC:   9
 Inv3:  Mode=1 IEnd=   227958267.
 Iteration    1 A*A^-1 deviation from unit magnitude is 2.73D-14 for   1494.
 Iteration    1 A*A^-1 deviation from orthogonality  is 8.57D-15 for   6720   3401.
 Iteration    1 A^-1*A deviation from unit magnitude is 2.73D-14 for   1494.
 Iteration    1 A^-1*A deviation from orthogonality  is 4.14D-14 for   4549   4480.
 E= -3371.34921050484    
 DIIS: error= 1.51D-02 at cycle   1 NSaved=   1.
 NSaved= 1 IEnMin= 1 EnMin= -3371.34921050484     IErMin= 1 ErrMin= 1.51D-02
 ErrMax= 1.51D-02  0.00D+00 EMaxC= 1.00D-01 BMatC= 9.30D+00 BMatP= 9.30D+00
 IDIUse=3 WtCom= 8.49D-01 WtEn= 1.51D-01
 Coeff-Com:  0.100D+01
 Coeff-En:   0.100D+01
 Coeff:      0.100D+01
 Gap=     0.136 Goal=   None    Shift=    0.000
 Gap=     0.167 Goal=   None    Shift=    0.000
 GapD=    0.136 DampG=1.000 DampE=0.500 DampFc=0.5000 IDamp=-1.
 Damping current iteration by 5.00D-01
 RMSDP=1.46D-03 MaxDP=5.42D-01              OVMax= 1.90D-01

 Cycle   2  Pass 1  IDiag  1:
 RMSU=  7.28D-04    CP:  9.98D-01
 E= -3372.18682331300     Delta-E=       -0.837612808156 Rises=F Damp=T
 DIIS: error= 3.84D-03 at cycle   2 NSaved=   2.
 NSaved= 2 IEnMin= 2 EnMin= -3372.18682331300     IErMin= 2 ErrMin= 3.84D-03
 ErrMax= 3.84D-03  0.00D+00 EMaxC= 1.00D-01 BMatC= 9.29D-01 BMatP= 9.30D+00
 IDIUse=3 WtCom= 9.62D-01 WtEn= 3.84D-02
 Coeff-Com: -0.822D-01 0.108D+01
 Coeff-En:   0.000D+00 0.100D+01
 Coeff:     -0.791D-01 0.108D+01
 Gap=     0.130 Goal=   None    Shift=    0.000
 Gap=     0.138 Goal=   None    Shift=    0.000
 RMSDP=4.89D-04 MaxDP=1.21D-01 DE=-8.38D-01 OVMax= 1.09D-01

 Cycle   3  Pass 1  IDiag  1:
 RMSU=  4.86D-04    CP:  9.83D-01  1.05D+00
 E= -3372.94969493921     Delta-E=       -0.762871626204 Rises=F Damp=F
 DIIS: error= 4.07D-03 at cycle   3 NSaved=   3.
 NSaved= 3 IEnMin= 3 EnMin= -3372.94969493921     IErMin= 2 ErrMin= 3.84D-03
 ErrMax= 4.07D-03  0.00D+00 EMaxC= 1.00D-01 BMatC= 5.60D-01 BMatP= 9.29D-01
 IDIUse=3 WtCom= 9.59D-01 WtEn= 4.07D-02
 Coeff-Com: -0.122D+00 0.508D+00 0.614D+00
 Coeff-En:   0.000D+00 0.000D+00 0.100D+01
 Coeff:     -0.117D+00 0.487D+00 0.630D+00
 Gap=     0.131 Goal=   None    Shift=    0.000
 Gap=     0.137 Goal=   None    Shift=    0.000
 RMSDP=1.79D-04 MaxDP=5.89D-02 DE=-7.63D-01 OVMax= 4.88D-02

 Cycle   4  Pass 1  IDiag  1:
 RMSU=  1.57D-04    CP:  9.84D-01  1.13D+00  8.65D-01
 E= -3373.04079374765     Delta-E=       -0.091098808445 Rises=F Damp=F
 DIIS: error= 1.95D-03 at cycle   4 NSaved=   4.
 NSaved= 4 IEnMin= 4 EnMin= -3373.04079374765     IErMin= 4 ErrMin= 1.95D-03
 ErrMax= 1.95D-03  0.00D+00 EMaxC= 1.00D-01 BMatC= 8.13D-02 BMatP= 5.60D-01
 IDIUse=3 WtCom= 9.81D-01 WtEn= 1.95D-02
 Coeff-Com: -0.436D-01 0.112D+00 0.321D+00 0.610D+00
 Coeff-En:   0.000D+00 0.000D+00 0.105D+00 0.895D+00
 Coeff:     -0.428D-01 0.110D+00 0.317D+00 0.616D+00
 Gap=     0.133 Goal=   None    Shift=    0.000
 Gap=     0.140 Goal=   None    Shift=    0.000
 RMSDP=6.37D-05 MaxDP=2.15D-02 DE=-9.11D-02 OVMax= 1.63D-02

 Cycle   5  Pass 1  IDiag  1:
 RMSU=  4.31D-05    CP:  9.83D-01  1.12D+00  9.08D-01  7.40D-01
 E= -3373.05692540939     Delta-E=       -0.016131661741 Rises=F Damp=F
 DIIS: error= 8.08D-04 at cycle   5 NSaved=   5.
 NSaved= 5 IEnMin= 5 EnMin= -3373.05692540939     IErMin= 5 ErrMin= 8.08D-04
 ErrMax= 8.08D-04  0.00D+00 EMaxC= 1.00D-01 BMatC= 4.14D-03 BMatP= 8.13D-02
 IDIUse=3 WtCom= 9.92D-01 WtEn= 8.08D-03
 Coeff-Com: -0.138D-01 0.272D-01 0.117D+00 0.292D+00 0.577D+00
 Coeff-En:   0.000D+00 0.000D+00 0.000D+00 0.000D+00 0.100D+01
 Coeff:     -0.137D-01 0.270D-01 0.116D+00 0.290D+00 0.581D+00
 Gap=     0.133 Goal=   None    Shift=    0.000
 Gap=     0.141 Goal=   None    Shift=    0.000
 RMSDP=1.77D-05 MaxDP=7.57D-03 DE=-1.61D-02 OVMax= 6.82D-03

 Cycle   6  Pass 1  IDiag  1:
 RMSU=  1.71D-05    CP:  9.83D-01  1.12D+00  9.10D-01  7.57D-01  1.01D+00
 E= -3373.05780806091     Delta-E=       -0.000882651517 Rises=F Damp=F
 DIIS: error= 2.79D-04 at cycle   6 NSaved=   6.
 NSaved= 6 IEnMin= 6 EnMin= -3373.05780806091     IErMin= 6 ErrMin= 2.79D-04
 ErrMax= 2.79D-04  0.00D+00 EMaxC= 1.00D-01 BMatC= 3.88D-04 BMatP= 4.14D-03
 IDIUse=3 WtCom= 9.97D-01 WtEn= 2.79D-03
 Coeff-Com: -0.103D-02-0.390D-03 0.141D-01 0.530D-01 0.246D+00 0.688D+00
 Coeff-En:   0.000D+00 0.000D+00 0.000D+00 0.000D+00 0.000D+00 0.100D+01
 Coeff:     -0.102D-02-0.389D-03 0.141D-01 0.529D-01 0.246D+00 0.689D+00
 Gap=     0.135 Goal=   None    Shift=    0.000
 Gap=     0.143 Goal=   None    Shift=    0.000
 RMSDP=1.10D-05 MaxDP=8.78D-03 DE=-8.83D-04 OVMax= 5.92D-03

 Cycle   7  Pass 1  IDiag  1:
 RMSU=  7.38D-06    CP:  9.83D-01  1.12D+00  9.13D-01  7.68D-01  1.16D+00
                    CP:  1.21D+00
 E= -3373.05795527908     Delta-E=       -0.000147218172 Rises=F Damp=F
 DIIS: error= 1.48D-04 at cycle   7 NSaved=   7.
 NSaved= 7 IEnMin= 7 EnMin= -3373.05795527908     IErMin= 7 ErrMin= 1.48D-04
 ErrMax= 1.48D-04  0.00D+00 EMaxC= 1.00D-01 BMatC= 1.00D-04 BMatP= 3.88D-04
 IDIUse=3 WtCom= 9.99D-01 WtEn= 1.48D-03
 Coeff-Com:  0.214D-02-0.526D-02-0.155D-01-0.323D-01 0.833D-02 0.321D+00
 Coeff-Com:  0.722D+00
 Coeff-En:   0.000D+00 0.000D+00 0.000D+00 0.000D+00 0.000D+00 0.000D+00
 Coeff-En:   0.100D+01
 Coeff:      0.213D-02-0.525D-02-0.155D-01-0.322D-01 0.832D-02 0.320D+00
 Coeff:      0.722D+00
 Gap=     0.136 Goal=   None    Shift=    0.000
 Gap=     0.144 Goal=   None    Shift=    0.000
 RMSDP=7.85D-06 MaxDP=4.97D-03 DE=-1.47D-04 OVMax= 3.76D-03

 Cycle   8  Pass 1  IDiag  1:
 RMSU=  3.13D-06    CP:  9.83D-01  1.12D+00  9.16D-01  7.76D-01  1.27D+00
                    CP:  1.48D+00  1.37D+00
 E= -3373.05801639264     Delta-E=       -0.000061113562 Rises=F Damp=F
 DIIS: error= 8.42D-05 at cycle   8 NSaved=   8.
 NSaved= 8 IEnMin= 8 EnMin= -3373.05801639264     IErMin= 8 ErrMin= 8.42D-05
 ErrMax= 8.42D-05  0.00D+00 EMaxC= 1.00D-01 BMatC= 3.29D-05 BMatP= 1.00D-04
 IDIUse=1 WtCom= 1.00D+00 WtEn= 0.00D+00
 Coeff-Com:  0.155D-02-0.277D-02-0.132D-01-0.371D-01-0.838D-01-0.876D-01
 Coeff-Com:  0.373D+00 0.850D+00
 Coeff:      0.155D-02-0.277D-02-0.132D-01-0.371D-01-0.838D-01-0.876D-01
 Coeff:      0.373D+00 0.850D+00
 Gap=     0.136 Goal=   None    Shift=    0.000
 Gap=     0.145 Goal=   None    Shift=    0.000
 RMSDP=7.26D-06 MaxDP=5.71D-03 DE=-6.11D-05 OVMax= 3.51D-03

 Cycle   9  Pass 1  IDiag  1:
 RMSU=  1.82D-06    CP:  9.83D-01  1.12D+00  9.18D-01  7.82D-01  1.37D+00
                    CP:  1.69D+00  1.89D+00  1.41D+00
 E= -3373.05804635561     Delta-E=       -0.000029962963 Rises=F Damp=F
 DIIS: error= 2.42D-05 at cycle   9 NSaved=   9.
 NSaved= 9 IEnMin= 9 EnMin= -3373.05804635561     IErMin= 9 ErrMin= 2.42D-05
 ErrMax= 2.42D-05  0.00D+00 EMaxC= 1.00D-01 BMatC= 6.05D-06 BMatP= 3.29D-05
 IDIUse=1 WtCom= 1.00D+00 WtEn= 0.00D+00
 Coeff-Com: -0.194D-03 0.732D-03 0.786D-03-0.135D-02-0.276D-01-0.115D+00
 Coeff-Com: -0.862D-01 0.245D+00 0.983D+00
 Coeff:     -0.194D-03 0.732D-03 0.786D-03-0.135D-02-0.276D-01-0.115D+00
 Coeff:     -0.862D-01 0.245D+00 0.983D+00
 Gap=     0.137 Goal=   None    Shift=    0.000
 Gap=     0.145 Goal=   None    Shift=    0.000
 RMSDP=4.08D-06 MaxDP=3.05D-03 DE=-3.00D-05 OVMax= 2.22D-03

 Cycle  10  Pass 1  IDiag  1:
 RMSU=  9.80D-07    CP:  9.83D-01  1.12D+00  9.19D-01  7.85D-01  1.41D+00
                    CP:  1.81D+00  2.17D+00  1.84D+00  1.46D+00
 E= -3373.05805367541     Delta-E=       -0.000007319801 Rises=F Damp=F
 DIIS: error= 1.13D-05 at cycle  10 NSaved=  10.
 NSaved=10 IEnMin=10 EnMin= -3373.05805367541     IErMin=10 ErrMin= 1.13D-05
 ErrMax= 1.13D-05  0.00D+00 EMaxC= 1.00D-01 BMatC= 2.09D-06 BMatP= 6.05D-06
 IDIUse=1 WtCom= 1.00D+00 WtEn= 0.00D+00
 Coeff-Com: -0.452D-03 0.100D-02 0.333D-02 0.791D-02 0.521D-02-0.331D-01
 Coeff-Com: -0.124D+00-0.855D-01 0.489D+00 0.737D+00
 Coeff:     -0.452D-03 0.100D-02 0.333D-02 0.791D-02 0.521D-02-0.331D-01
 Coeff:     -0.124D+00-0.855D-01 0.489D+00 0.737D+00
 Gap=     0.137 Goal=   None    Shift=    0.000
 Gap=     0.145 Goal=   None    Shift=    0.000
 RMSDP=1.51D-06 MaxDP=1.15D-03 DE=-7.32D-06 OVMax= 8.75D-04

 Cycle  11  Pass 1  IDiag  1:
 RMSU=  4.57D-07    CP:  9.83D-01  1.12D+00  9.20D-01  7.86D-01  1.43D+00
                    CP:  1.85D+00  2.28D+00  1.99D+00  1.71D+00  1.28D+00
 E= -3373.05805510936     Delta-E=       -0.000001433957 Rises=F Damp=F
 DIIS: error= 7.04D-06 at cycle  11 NSaved=  11.
 NSaved=11 IEnMin=11 EnMin= -3373.05805510936     IErMin=11 ErrMin= 7.04D-06
 ErrMax= 7.04D-06  0.00D+00 EMaxC= 1.00D-01 BMatC= 3.94D-07 BMatP= 2.09D-06
 IDIUse=1 WtCom= 1.00D+00 WtEn= 0.00D+00
 Coeff-Com: -0.161D-03 0.312D-03 0.129D-02 0.379D-02 0.696D-02 0.685D-02
 Coeff-Com: -0.365D-01-0.840D-01 0.284D-01 0.312D+00 0.761D+00
 Coeff:     -0.161D-03 0.312D-03 0.129D-02 0.379D-02 0.696D-02 0.685D-02
 Coeff:     -0.365D-01-0.840D-01 0.284D-01 0.312D+00 0.761D+00
 Gap=     0.137 Goal=   None    Shift=    0.000
 Gap=     0.145 Goal=   None    Shift=    0.000
 RMSDP=5.18D-07 MaxDP=3.18D-04 DE=-1.43D-06 OVMax= 4.12D-04

 Cycle  12  Pass 1  IDiag  1:
 RMSU=  2.26D-07    CP:  9.83D-01  1.12D+00  9.20D-01  7.86D-01  1.43D+00
                    CP:  1.86D+00  2.31D+00  2.03D+00  1.81D+00  1.52D+00
                    CP:  1.23D+00
 E= -3373.05805548117     Delta-E=       -0.000000371803 Rises=F Damp=F
 DIIS: error= 3.02D-06 at cycle  12 NSaved=  12.
 NSaved=12 IEnMin=12 EnMin= -3373.05805548117     IErMin=12 ErrMin= 3.02D-06
 ErrMax= 3.02D-06  0.00D+00 EMaxC= 1.00D-01 BMatC= 1.11D-07 BMatP= 3.94D-07
 IDIUse=1 WtCom= 1.00D+00 WtEn= 0.00D+00
 Coeff-Com:  0.565D-04-0.140D-03-0.384D-03-0.628D-03 0.863D-03 0.980D-02
 Coeff-Com:  0.168D-01-0.707D-02-0.104D+00-0.893D-01 0.280D+00 0.894D+00
 Coeff:      0.565D-04-0.140D-03-0.384D-03-0.628D-03 0.863D-03 0.980D-02
 Coeff:      0.168D-01-0.707D-02-0.104D+00-0.893D-01 0.280D+00 0.894D+00
 Gap=     0.137 Goal=   None    Shift=    0.000
 Gap=     0.145 Goal=   None    Shift=    0.000
 RMSDP=3.46D-07 MaxDP=2.25D-04 DE=-3.72D-07 OVMax= 3.58D-04

 Cycle  13  Pass 1  IDiag  1:
 RMSU=  1.13D-07    CP:  9.83D-01  1.12D+00  9.20D-01  7.86D-01  1.43D+00
                    CP:  1.87D+00  2.32D+00  2.04D+00  1.87D+00  1.68D+00
                    CP:  1.58D+00  1.64D+00
 E= -3373.05805565983     Delta-E=       -0.000000178665 Rises=F Damp=F
 DIIS: error= 2.01D-06 at cycle  13 NSaved=  13.
 NSaved=13 IEnMin=13 EnMin= -3373.05805565983     IErMin=13 ErrMin= 2.01D-06
 ErrMax= 2.01D-06  0.00D+00 EMaxC= 1.00D-01 BMatC= 3.65D-08 BMatP= 1.11D-07
 IDIUse=1 WtCom= 1.00D+00 WtEn= 0.00D+00
 Coeff-Com:  0.689D-04-0.140D-03-0.542D-03-0.148D-02-0.218D-02 0.287D-03
 Coeff-Com:  0.163D-01 0.265D-01-0.360D-01-0.137D+00-0.152D+00 0.245D+00
 Coeff-Com:  0.104D+01
 Coeff:      0.689D-04-0.140D-03-0.542D-03-0.148D-02-0.218D-02 0.287D-03
 Coeff:      0.163D-01 0.265D-01-0.360D-01-0.137D+00-0.152D+00 0.245D+00
 Coeff:      0.104D+01
 Gap=     0.137 Goal=   None    Shift=    0.000
 Gap=     0.145 Goal=   None    Shift=    0.000
 RMSDP=2.72D-07 MaxDP=1.63D-04 DE=-1.79D-07 OVMax= 3.22D-04

 Cycle  14  Pass 1  IDiag  1:
 RMSU=  7.86D-08    CP:  9.83D-01  1.12D+00  9.20D-01  7.86D-01  1.43D+00
                    CP:  1.87D+00  2.33D+00  2.05D+00  1.90D+00  1.78D+00
                    CP:  1.87D+00  2.23D+00  1.79D+00
 E= -3373.05805574797     Delta-E=       -0.000000088141 Rises=F Damp=F
 DIIS: error= 1.23D-06 at cycle  14 NSaved=  14.
 NSaved=14 IEnMin=14 EnMin= -3373.05805574797     IErMin=14 ErrMin= 1.23D-06
 ErrMax= 1.23D-06  0.00D+00 EMaxC= 1.00D-01 BMatC= 1.23D-08 BMatP= 3.65D-08
 IDIUse=1 WtCom= 1.00D+00 WtEn= 0.00D+00
 Coeff-Com: -0.474D-05 0.185D-04 0.166D-04-0.133D-03-0.827D-03-0.353D-02
 Coeff-Com: -0.292D-02 0.935D-02 0.307D-01-0.536D-02-0.142D+00-0.281D+00
 Coeff-Com:  0.278D+00 0.112D+01
 Coeff:     -0.474D-05 0.185D-04 0.166D-04-0.133D-03-0.827D-03-0.353D-02
 Coeff:     -0.292D-02 0.935D-02 0.307D-01-0.536D-02-0.142D+00-0.281D+00
 Coeff:      0.278D+00 0.112D+01
 Gap=     0.137 Goal=   None    Shift=    0.000
 Gap=     0.145 Goal=   None    Shift=    0.000
 RMSDP=1.99D-07 MaxDP=1.17D-04 DE=-8.81D-08 OVMax= 2.37D-04

 Cycle  15  Pass 1  IDiag  1:
 RMSU=  4.35D-08    CP:  9.83D-01  1.12D+00  9.20D-01  7.86D-01  1.43D+00
                    CP:  1.87D+00  2.34D+00  2.06D+00  1.92D+00  1.84D+00
                    CP:  2.04D+00  2.70D+00  2.54D+00  1.61D+00
 E= -3373.05805578249     Delta-E=       -0.000000034521 Rises=F Damp=F
 DIIS: error= 5.93D-07 at cycle  15 NSaved=  15.
 NSaved=15 IEnMin=15 EnMin= -3373.05805578249     IErMin=15 ErrMin= 5.93D-07
 ErrMax= 5.93D-07  0.00D+00 EMaxC= 1.00D-01 BMatC= 4.26D-09 BMatP= 1.23D-08
 IDIUse=1 WtCom= 1.00D+00 WtEn= 0.00D+00
 Coeff-Com: -0.239D-04 0.522D-04 0.182D-03 0.402D-03 0.267D-03-0.189D-02
 Coeff-Com: -0.703D-02-0.411D-02 0.266D-01 0.433D-01-0.148D-01-0.211D+00
 Coeff-Com: -0.214D+00 0.513D+00 0.869D+00
 Coeff:     -0.239D-04 0.522D-04 0.182D-03 0.402D-03 0.267D-03-0.189D-02
 Coeff:     -0.703D-02-0.411D-02 0.266D-01 0.433D-01-0.148D-01-0.211D+00
 Coeff:     -0.214D+00 0.513D+00 0.869D+00
 Gap=     0.137 Goal=   None    Shift=    0.000
 Gap=     0.145 Goal=   None    Shift=    0.000
 RMSDP=1.01D-07 MaxDP=7.19D-05 DE=-3.45D-08 OVMax= 1.01D-04

 Cycle  16  Pass 1  IDiag  1:
 RMSU=  1.88D-08    CP:  9.83D-01  1.12D+00  9.20D-01  7.86D-01  1.43D+00
                    CP:  1.87D+00  2.34D+00  2.06D+00  1.93D+00  1.87D+00
                    CP:  2.12D+00  2.90D+00  2.93D+00  2.07D+00  1.40D+00
 E= -3373.05805578792     Delta-E=       -0.000000005424 Rises=F Damp=F
 DIIS: error= 2.61D-07 at cycle  16 NSaved=  16.
 NSaved=16 IEnMin=16 EnMin= -3373.05805578792     IErMin=16 ErrMin= 2.61D-07
 ErrMax= 2.61D-07  0.00D+00 EMaxC= 1.00D-01 BMatC= 8.91D-10 BMatP= 4.26D-09
 IDIUse=1 WtCom= 1.00D+00 WtEn= 0.00D+00
 Coeff-Com: -0.802D-05 0.163D-04 0.722D-04 0.195D-03 0.311D-03 0.983D-04
 Coeff-Com: -0.219D-02-0.397D-02 0.287D-02 0.196D-01 0.297D-01-0.161D-01
 Coeff-Com: -0.152D+00-0.574D-01 0.365D+00 0.815D+00
 Coeff:     -0.802D-05 0.163D-04 0.722D-04 0.195D-03 0.311D-03 0.983D-04
 Coeff:     -0.219D-02-0.397D-02 0.287D-02 0.196D-01 0.297D-01-0.161D-01
 Coeff:     -0.152D+00-0.574D-01 0.365D+00 0.815D+00
 Gap=     0.137 Goal=   None    Shift=    0.000
 Gap=     0.145 Goal=   None    Shift=    0.000
 RMSDP=2.92D-08 MaxDP=1.78D-05 DE=-5.42D-09 OVMax= 2.41D-05

 Cycle  17  Pass 1  IDiag  1:
 RMSU=  1.02D-08    CP:  9.83D-01  1.12D+00  9.20D-01  7.86D-01  1.43D+00
                    CP:  1.87D+00  2.34D+00  2.06D+00  1.93D+00  1.87D+00
                    CP:  2.13D+00  2.94D+00  3.00D+00  2.21D+00  1.64D+00
                    CP:  1.20D+00
 E= -3373.05805578772     Delta-E=        0.000000000202 Rises=F Damp=F
 DIIS: error= 1.14D-07 at cycle  17 NSaved=  17.
 NSaved=17 IEnMin=16 EnMin= -3373.05805578792     IErMin=17 ErrMin= 1.14D-07
 ErrMax= 1.14D-07  0.00D+00 EMaxC= 1.00D-01 BMatC= 1.70D-10 BMatP= 8.91D-10
 IDIUse=1 WtCom= 1.00D+00 WtEn= 0.00D+00
 Coeff-Com:  0.146D-05-0.356D-05-0.337D-05 0.385D-05 0.825D-04 0.406D-03
 Coeff-Com:  0.433D-03-0.812D-03-0.405D-02-0.779D-04 0.141D-01 0.339D-01
 Coeff-Com: -0.185D-01-0.125D+00-0.157D-01 0.326D+00 0.789D+00
 Coeff:      0.146D-05-0.356D-05-0.337D-05 0.385D-05 0.825D-04 0.406D-03
 Coeff:      0.433D-03-0.812D-03-0.405D-02-0.779D-04 0.141D-01 0.339D-01
 Coeff:     -0.185D-01-0.125D+00-0.157D-01 0.326D+00 0.789D+00
 Gap=     0.137 Goal=   None    Shift=    0.000
 Gap=     0.145 Goal=   None    Shift=    0.000
 RMSDP=9.59D-09 MaxDP=5.07D-06 DE= 2.02D-10 OVMax= 6.17D-06

 Cycle  18  Pass 1  IDiag  1:
 RMSU=  4.18D-09    CP:  9.83D-01  1.12D+00  9.20D-01  7.86D-01  1.43D+00
                    CP:  1.87D+00  2.34D+00  2.06D+00  1.93D+00  1.87D+00
                    CP:  2.13D+00  2.95D+00  3.00D+00  2.24D+00  1.73D+00
                    CP:  1.40D+00  1.35D+00
 E= -3373.05805578870     Delta-E=       -0.000000000988 Rises=F Damp=F
 DIIS: error= 5.23D-08 at cycle  18 NSaved=  18.
 NSaved=18 IEnMin=18 EnMin= -3373.05805578870     IErMin=18 ErrMin= 5.23D-08
 ErrMax= 5.23D-08  0.00D+00 EMaxC= 1.00D-01 BMatC= 3.44D-11 BMatP= 1.70D-10
 IDIUse=1 WtCom= 1.00D+00 WtEn= 0.00D+00
 Coeff-Com:  0.200D-05-0.427D-05-0.146D-04-0.355D-04-0.342D-04 0.105D-03
 Coeff-Com:  0.564D-03 0.505D-03-0.193D-02-0.363D-02-0.954D-03 0.154D-01
 Coeff-Com:  0.252D-01-0.333D-01-0.780D-01-0.607D-01 0.285D+00 0.852D+00
 Coeff:      0.200D-05-0.427D-05-0.146D-04-0.355D-04-0.342D-04 0.105D-03
 Coeff:      0.564D-03 0.505D-03-0.193D-02-0.363D-02-0.954D-03 0.154D-01
 Coeff:      0.252D-01-0.333D-01-0.780D-01-0.607D-01 0.285D+00 0.852D+00
 Gap=     0.137 Goal=   None    Shift=    0.000
 Gap=     0.145 Goal=   None    Shift=    0.000
 RMSDP=4.23D-09 MaxDP=1.44D-06 DE=-9.88D-10 OVMax= 2.05D-06

 Cycle  19  Pass 1  IDiag  1:
 RMSU=  2.64D-09    CP:  9.83D-01  1.12D+00  9.20D-01  7.86D-01  1.43D+00
                    CP:  1.87D+00  2.34D+00  2.06D+00  1.93D+00  1.87D+00
                    CP:  2.13D+00  2.95D+00  3.00D+00  2.24D+00  1.77D+00
                    CP:  1.48D+00  1.54D+00  1.22D+00
 E= -3373.05805578891     Delta-E=       -0.000000000207 Rises=F Damp=F
 DIIS: error= 2.69D-08 at cycle  19 NSaved=  19.
 NSaved=19 IEnMin=19 EnMin= -3373.05805578891     IErMin=19 ErrMin= 2.69D-08
 ErrMax= 2.69D-08  0.00D+00 EMaxC= 1.00D-01 BMatC= 7.16D-12 BMatP= 3.44D-11
 IDIUse=1 WtCom= 1.00D+00 WtEn= 0.00D+00
 Coeff-Com:  0.201D-06-0.383D-06-0.359D-05-0.985D-05-0.240D-04-0.448D-04
 Coeff-Com:  0.917D-04 0.287D-03 0.255D-03-0.980D-03-0.326D-02-0.293D-02
 Coeff-Com:  0.104D-01 0.158D-01-0.150D-01-0.785D-01-0.830D-01 0.229D+00
 Coeff-Com:  0.928D+00
 Coeff:      0.201D-06-0.383D-06-0.359D-05-0.985D-05-0.240D-04-0.448D-04
 Coeff:      0.917D-04 0.287D-03 0.255D-03-0.980D-03-0.326D-02-0.293D-02
 Coeff:      0.104D-01 0.158D-01-0.150D-01-0.785D-01-0.830D-01 0.229D+00
 Coeff:      0.928D+00
 Gap=     0.137 Goal=   None    Shift=    0.000
 Gap=     0.145 Goal=   None    Shift=    0.000
 RMSDP=2.29D-09 MaxDP=3.96D-07 DE=-2.07D-10 OVMax= 1.08D-06

 Error on total polarization charges =  0.02959
 SCF Done:  E(UM062X) =  -3373.05805579     A.U. after   19 cycles
            NFock= 19  Conv=0.23D-08     -V/T= 2.0054
 <Sx>= 0.0000 <Sy>= 0.0000 <Sz>= 0.5000 <S**2>= 0.7949 S= 0.5222
 <L.S>= 0.000000000000E+00
 KE= 3.354902711174D+03 PE=-2.973640508563D+04 EE= 1.209480473071D+04
 Annihilation of the first spin contaminant:
 S**2 before annihilation     0.7949,   after     0.7516
 Leave Link  502 at Fri Nov  7 12:32:46 2025, MaxMem= 30870077440 cpu:          299275.4 elap:            4731.9
 (Enter /public/software/gauss/g16/l601.exe)
 Copying SCF densities to generalized density rwf, IOpCl= 1 IROHF=0.
 Hyperfine terms turned off by default for NAtoms > 100.

 **********************************************************************

            Population analysis using the SCF density.

 **********************************************************************

 Orbital symmetries:
 Alpha Orbitals:
       Occupied  (A) (A) (A) (A) (A) (A) (A) (A) (A) (A) (A) (A)
                 (A) (A) (A) (A) (A) (A) (A) (A) (A) (A) (A) (A)
                 (A) (A) (A) (A) (A) (A) (A) (A) (A) (A) (A) (A)
                 (A) (A) (A) (A) (A) (A) (A) (A) (A) (A) (A) (A)
                 (A) (A) (A) (A) (A) (A) (A) (A) (A) (A) (A) (A)
                 (A) (A) (A) (A) (A) (A) (A) (A) (A) (A) (A) (A)
                 (A) (A) (A) (A) (A) (A) (A) (A) (A) (A) (A) (A)
                 (A) (A) (A) (A) (A) (A) (A) (A) (A) (A) (A) (A)
                 (A) (A) (A) (A) (A) (A) (A) (A) (A) (A) (A) (A)
                 (A) (A) (A) (A) (A) (A) (A) (A) (A) (A) (A) (A)
                 (A) (A) (A) (A) (A) (A) (A) (A) (A) (A) (A) (A)
                 (A) (A) (A) (A) (A) (A) (A) (A) (A) (A) (A) (A)
                 (A) (A) (A) (A) (A) (A) (A) (A) (A) (A) (A) (A)
                 (A) (A) (A) (A) (A) (A) (A) (A) (A) (A) (A) (A)
                 (A) (A) (A) (A) (A) (A) (A) (A) (A) (A) (A) (A)
                 (A) (A) (A) (A) (A) (A) (A) (A) (A) (A) (A) (A)
                 (A) (A) (A) (A) (A) (A) (A) (A) (A) (A) (A) (A)
                 (A) (A) (A) (A) (A) (A) (A) (A) (A) (A) (A) (A)
                 (A) (A) (A) (A) (A) (A) (A) (A) (A) (A) (A) (A)
                 (A) (A) (A) (A) (A) (A) (A) (A) (A) (A) (A) (A)
                 (A) (A) (A) (A) (A) (A) (A) (A) (A) (A) (A) (A)
                 (A) (A) (A) (A) (A) (A) (A) (A) (A) (A)
       Virtual   (A) (A) (A) (A) (A) (A) (A) (A) (A) (A) (A) (A)
                 (A) (A) (A) (A) (A) (A) (A) (A) (A) (A) (A) (A)
                 (A) (A) (A) (A) (A) (A) (A) (A) (A) (A) (A) (A)
                 (A) (A) (A) (A) (A) (A) (A) (A) (A) (A) (A) (A)
                 (A) (A) (A) (A) (A) (A) (A) (A) (A) (A) (A) (A)
                 (A) (A) (A) (A) (A) (A) (A) (A) (A) (A) (A) (A)
                 (A) (A) (A) (A) (A) (A) (A) (A) (A) (A) (A) (A)
                 (A) (A) (A) (A) (A) (A) (A) (A) (A) (A) (A) (A)
                 (A) (A) (A) (A) (A) (A) (A) (A) (A) (A) (A) (A)
                 (A) (A) (A) (A) (A) (A) (A) (A) (A) (A) (A) (A)
                 (A) (A) (A) (A) (A) (A) (A) (A) (A) (A) (A) (A)
                 (A) (A) (A) (A) (A) (A) (A) (A) (A) (A) (A) (A)
                 (A) (A) (A) (A) (A) (A) (A) (A) (A) (A) (A) (A)
                 (A) (A) (A) (A) (A) (A) (A) (A) (A) (A) (A) (A)
                 (A) (A) (A) (A) (A) (A) (A) (A) (A) (A) (A) (A)
                 (A) (A) (A) (A) (A) (A) (A) (A) (A) (A) (A) (A)
                 (A) (A) (A) (A) (A) (A) (A) (A) (A) (A) (A) (A)
                 (A) (A) (A) (A) (A) (A) (A) (A) (A) (A) (A) (A)
                 (A) (A) (A) (A) (A) (A) (A) (A) (A) (A) (A) (A)
                 (A) (A) (A) (A) (A) (A) (A) (A) (A) (A) (A) (A)
                 (A) (A) (A) (A) (A) (A) (A) (A) (A) (A) (A) (A)
                 (A) (A) (A) (A) (A) (A) (A) (A) (A) (A) (A) (A)
                 (A) (A) (A) (A) (A) (A) (A) (A) (A) (A) (A) (A)
                 (A) (A) (A) (A) (A) (A) (A) (A) (A) (A) (A) (A)
                 (A) (A) (A) (A) (A) (A) (A) (A) (A) (A) (A) (A)
                 (A) (A) (A) (A) (A) (A) (A) (A) (A) (A) (A) (A)
                 (A) (A) (A) (A) (A) (A) (A) (A) (A) (A) (A) (A)
                 (A) (A) (A) (A) (A) (A) (A) (A) (A) (A) (A) (A)
                 (A) (A) (A) (A) (A) (A) (A) (A) (A) (A) (A) (A)
                 (A) (A) (A) (A) (A) (A) (A) (A) (A) (A) (A) (A)
                 (A) (A) (A) (A) (A) (A) (A) (A) (A) (A) (A) (A)
                 (A) (A) (A) (A) (A) (A) (A) (A) (A) (A) (A) (A)
                 (A) (A) (A) (A) (A) (A) (A) (A) (A) (A) (A) (A)
                 (A) (A) (A) (A) (A) (A) (A) (A) (A) (A) (A) (A)
                 (A) (A) (A) (A) (A) (A) (A) (A) (A) (A) (A) (A)
                 (A) (A) (A) (A) (A) (A) (A) (A) (A) (A) (A) (A)
                 (A) (A) (A) (A) (A) (A) (A) (A) (A) (A) (A) (A)
                 (A) (A) (A) (A) (A) (A) (A) (A) (A) (A) (A) (A)
                 (A) (A) (A) (A) (A) (A) (A) (A) (A) (A) (A) (A)
                 (A) (A) (A) (A) (A) (A) (A) (A) (A) (A) (A) (A)
                 (A) (A) (A) (A) (A) (A) (A) (A) (A) (A) (A) (A)
                 (A) (A) (A) (A) (A) (A) (A) (A) (A) (A) (A) (A)
                 (A) (A) (A) (A) (A) (A) (A) (A) (A) (A) (A) (A)
                 (A) (A) (A) (A) (A) (A) (A) (A) (A) (A) (A) (A)
                 (A) (A) (A) (A) (A) (A) (A) (A) (A) (A) (A) (A)
                 (A) (A) (A) (A) (A) (A) (A) (A) (A) (A) (A) (A)
                 (A) (A) (A) (A) (A) (A) (A) (A) (A) (A) (A) (A)
                 (A) (A) (A) (A) (A) (A) (A) (A) (A) (A) (A) (A)
                 (A) (A) (A) (A) (A) (A) (A) (A) (A) (A) (A) (A)
                 (A) (A) (A) (A) (A) (A) (A) (A) (A) (A) (A) (A)
                 (A) (A) (A) (A) (A) (A) (A) (A) (A) (A) (A) (A)
                 (A) (A) (A) (A) (A) (A) (A) (A) (A) (A) (A) (A)
                 (A) (A) (A) (A) (A) (A) (A) (A) (A) (A) (A) (A)
                 (A) (A) (A) (A) (A) (A) (A) (A) (A) (A) (A) (A)
                 (A) (A) (A) (A) (A) (A) (A) (A) (A) (A) (A) (A)
                 (A) (A) (A) (A) (A) (A) (A) (A) (A) (A) (A) (A)
                 (A) (A) (A) (A) (A) (A) (A) (A) (A) (A) (A) (A)
                 (A) (A) (A) (A) (A) (A) (A) (A) (A) (A) (A) (A)
                 (A) (A) (A) (A) (A) (A) (A) (A) (A) (A) (A) (A)
                 (A) (A) (A) (A) (A) (A) (A) (A) (A) (A) (A) (A)
                 (A) (A) (A) (A) (A) (A) (A) (A) (A) (A) (A) (A)
                 (A) (A) (A) (A) (A) (A) (A) (A) (A) (A) (A) (A)
                 (A) (A) (A) (A) (A) (A) (A) (A) (A) (A) (A) (A)
                 (A) (A) (A) (A) (A) (A) (A) (A) (A) (A) (A) (A)
                 (A) (A) (A) (A) (A) (A) (A) (A) (A) (A) (A) (A)
                 (A) (A) (A) (A) (A) (A) (A) (A) (A) (A) (A) (A)
                 (A) (A) (A) (A) (A) (A) (A) (A) (A) (A) (A) (A)
                 (A) (A) (A) (A) (A) (A) (A) (A) (A) (A) (A) (A)
                 (A) (A) (A) (A) (A) (A) (A) (A) (A) (A) (A) (A)
                 (A) (A) (A) (A) (A) (A) (A) (A) (A) (A) (A) (A)
                 (A) (A) (A) (A) (A) (A) (A) (A) (A) (A) (A) (A)
                 (A) (A) (A) (A) (A) (A) (A) (A) (A) (A) (A) (A)
                 (A) (A) (A) (A) (A) (A) (A) (A) (A) (A) (A) (A)
                 (A) (A) (A) (A) (A) (A) (A) (A) (A) (A) (A) (A)
                 (A) (A) (A) (A) (A) (A) (A) (A) (A) (A) (A) (A)
                 (A) (A) (A) (A) (A) (A) (A) (A) (A) (A) (A) (A)
                 (A) (A) (A) (A) (A) (A) (A) (A) (A) (A) (A) (A)
                 (A) (A) (A) (A) (A) (A) (A) (A) (A) (A) (A) (A)
                 (A) (A) (A) (A) (A) (A) (A) (A) (A) (A) (A) (A)
                 (A) (A) (A) (A) (A) (A) (A) (A) (A) (A) (A) (A)
                 (A) (A) (A) (A) (A) (A) (A) (A) (A) (A) (A) (A)
                 (A) (A) (A) (A) (A) (A) (A) (A) (A) (A) (A) (A)
                 (A) (A) (A) (A) (A) (A) (A) (A) (A) (A) (A) (A)
                 (A) (A) (A) (A) (A) (A) (A) (A) (A) (A) (A) (A)
                 (A) (A) (A) (A) (A) (A) (A) (A) (A) (A) (A) (A)
                 (A) (A) (A) (A) (A) (A) (A) (A) (A) (A) (A) (A)
                 (A) (A) (A) (A) (A) (A) (A) (A) (A) (A) (A) (A)
                 (A) (A) (A) (A) (A) (A) (A) (A) (A) (A) (A) (A)
                 (A) (A) (A) (A) (A) (A) (A) (A) (A) (A) (A) (A)
                 (A) (A) (A) (A) (A) (A) (A) (A) (A) (A) (A) (A)
                 (A) (A) (A) (A) (A) (A) (A) (A) (A) (A) (A) (A)
                 (A) (A) (A) (A) (A) (A) (A) (A) (A) (A) (A) (A)
                 (A) (A) (A) (A) (A) (A) (A) (A) (A) (A) (A) (A)
                 (A) (A) (A) (A) (A) (A) (A) (A) (A) (A) (A) (A)
                 (A) (A) (A) (A) (A) (A) (A) (A) (A) (A) (A) (A)
                 (A) (A) (A) (A) (A) (A) (A) (A) (A) (A) (A) (A)
                 (A) (A) (A) (A) (A) (A) (A) (A) (A) (A) (A) (A)
                 (A) (A) (A) (A) (A) (A) (A) (A) (A) (A) (A) (A)
                 (A) (A) (A) (A) (A) (A) (A) (A) (A) (A) (A) (A)
                 (A) (A) (A) (A) (A) (A) (A) (A) (A) (A) (A) (A)
                 (A) (A) (A) (A) (A) (A) (A) (A) (A) (A) (A) (A)
                 (A) (A) (A) (A) (A) (A) (A) (A) (A) (A) (A) (A)
                 (A) (A) (A) (A) (A) (A) (A) (A) (A) (A) (A) (A)
                 (A) (A) (A) (A) (A) (A) (A) (A) (A) (A) (A) (A)
                 (A) (A) (A) (A) (A) (A) (A) (A) (A) (A) (A) (A)
                 (A) (A) (A) (A) (A) (A) (A) (A) (A) (A) (A) (A)
                 (A) (A) (A) (A) (A) (A) (A) (A) (A) (A) (A) (A)
                 (A) (A) (A) (A) (A) (A) (A) (A) (A) (A) (A) (A)
                 (A) (A) (A) (A) (A) (A) (A) (A) (A) (A) (A) (A)
                 (A) (A) (A) (A) (A) (A) (A) (A) (A) (A) (A) (A)
                 (A) (A) (A) (A) (A) (A) (A) (A) (A) (A) (A) (A)
                 (A) (A) (A) (A) (A) (A) (A) (A) (A) (A) (A) (A)
                 (A) (A) (A) (A) (A) (A) (A) (A) (A) (A) (A) (A)
                 (A) (A) (A) (A) (A) (A) (A) (A) (A) (A) (A) (A)
                 (A) (A) (A) (A) (A) (A) (A) (A) (A) (A) (A) (A)
                 (A) (A) (A) (A) (A) (A) (A) (A) (A) (A) (A) (A)
                 (A) (A) (A) (A) (A) (A) (A) (A) (A) (A) (A) (A)
                 (A) (A) (A) (A) (A) (A) (A) (A) (A) (A) (A) (A)
                 (A) (A) (A) (A) (A) (A) (A) (A) (A) (A) (A) (A)
                 (A) (A) (A) (A) (A) (A) (A) (A) (A) (A) (A) (A)
                 (A) (A) (A) (A) (A) (A) (A) (A) (A) (A) (A) (A)
                 (A) (A) (A) (A) (A) (A) (A) (A) (A) (A) (A) (A)
                 (A) (A) (A) (A) (A) (A) (A) (A) (A) (A) (A) (A)
                 (A) (A) (A) (A) (A) (A) (A) (A) (A) (A) (A) (A)
                 (A) (A) (A) (A) (A) (A) (A) (A) (A) (A) (A) (A)
                 (A) (A) (A) (A) (A) (A) (A) (A) (A) (A) (A) (A)
                 (A) (A) (A) (A) (A) (A) (A) (A) (A) (A) (A) (A)
                 (A) (A) (A) (A) (A) (A) (A) (A) (A) (A) (A) (A)
                 (A) (A) (A) (A) (A) (A) (A) (A) (A) (A) (A) (A)
                 (A) (A) (A) (A) (A) (A) (A) (A) (A) (A) (A) (A)
                 (A) (A) (A) (A) (A) (A) (A) (A) (A) (A) (A) (A)
                 (A) (A) (A) (A) (A) (A) (A) (A) (A) (A) (A) (A)
                 (A) (A) (A) (A) (A) (A) (A) (A) (A) (A) (A) (A)
                 (A) (A) (A) (A) (A) (A) (A) (A) (A) (A) (A) (A)
                 (A) (A) (A) (A) (A) (A) (A) (A) (A) (A) (A) (A)
                 (A) (A) (A) (A) (A) (A) (A) (A) (A) (A) (A) (A)
                 (A) (A) (A) (A) (A) (A) (A) (A) (A) (A) (A) (A)
                 (A) (A) (A) (A) (A) (A) (A) (A) (A) (A) (A) (A)
                 (A) (A) (A) (A) (A) (A) (A) (A) (A) (A) (A) (A)
                 (A) (A) (A) (A) (A) (A) (A) (A) (A) (A) (A) (A)
                 (A) (A) (A) (A) (A) (A) (A) (A) (A) (A) (A) (A)
                 (A) (A) (A) (A) (A) (A) (A) (A) (A) (A) (A) (A)
                 (A) (A) (A) (A) (A) (A) (A) (A) (A) (A) (A) (A)
                 (A) (A) (A) (A) (A) (A) (A) (A) (A) (A) (A) (A)
                 (A) (A) (A) (A) (A) (A) (A) (A) (A) (A) (A) (A)
                 (A) (A) (A) (A) (A) (A) (A) (A) (A) (A) (A) (A)
                 (A) (A) (A) (A) (A) (A) (A) (A) (A) (A) (A) (A)
                 (A) (A) (A) (A) (A) (A) (A) (A) (A) (A) (A) (A)
                 (A) (A) (A) (A) (A) (A) (A) (A) (A) (A) (A) (A)
                 (A) (A) (A) (A) (A) (A) (A) (A) (A) (A) (A) (A)
                 (A) (A) (A) (A) (A) (A) (A) (A) (A) (A) (A) (A)
                 (A) (A) (A) (A) (A) (A) (A) (A) (A) (A) (A) (A)
                 (A) (A) (A) (A) (A) (A) (A) (A) (A) (A) (A) (A)
                 (A) (A) (A) (A) (A) (A) (A) (A) (A) (A) (A) (A)
                 (A) (A) (A) (A) (A) (A) (A) (A) (A) (A) (A) (A)
                 (A) (A) (A) (A) (A) (A) (A) (A) (A) (A) (A) (A)
                 (A) (A) (A) (A) (A) (A) (A) (A) (A) (A) (A) (A)
                 (A) (A) (A) (A) (A) (A) (A) (A) (A) (A) (A) (A)
                 (A) (A) (A) (A) (A) (A) (A) (A) (A) (A) (A) (A)
                 (A) (A) (A) (A) (A) (A) (A) (A) (A) (A) (A) (A)
                 (A) (A) (A) (A) (A) (A) (A) (A) (A) (A) (A) (A)
                 (A) (A) (A) (A) (A) (A) (A) (A) (A) (A) (A) (A)
                 (A) (A) (A) (A) (A) (A) (A) (A) (A) (A) (A) (A)
                 (A) (A) (A) (A) (A) (A) (A) (A) (A) (A) (A) (A)
                 (A) (A) (A) (A) (A) (A) (A) (A) (A) (A) (A) (A)
                 (A) (A) (A) (A) (A) (A) (A) (A) (A) (A) (A) (A)
                 (A) (A) (A) (A) (A) (A) (A) (A) (A) (A) (A) (A)
                 (A) (A) (A) (A) (A) (A) (A) (A) (A) (A) (A) (A)
                 (A) (A) (A) (A) (A) (A) (A) (A) (A) (A) (A) (A)
                 (A) (A) (A) (A) (A) (A) (A) (A) (A) (A) (A) (A)
                 (A) (A) (A) (A) (A) (A) (A) (A) (A) (A) (A) (A)
                 (A) (A) (A) (A) (A) (A) (A) (A) (A) (A) (A) (A)
                 (A) (A) (A) (A) (A) (A) (A) (A) (A) (A) (A) (A)
                 (A) (A) (A) (A) (A) (A) (A) (A) (A) (A) (A) (A)
                 (A) (A) (A) (A) (A) (A) (A) (A) (A) (A) (A) (A)
                 (A) (A) (A) (A) (A) (A) (A) (A) (A) (A) (A) (A)
                 (A) (A) (A) (A) (A) (A) (A) (A) (A) (A) (A) (A)
                 (A) (A) (A) (A) (A) (A) (A) (A) (A) (A) (A) (A)
                 (A) (A) (A) (A) (A) (A) (A) (A) (A) (A) (A) (A)
                 (A) (A) (A) (A) (A) (A) (A) (A) (A) (A) (A) (A)
                 (A) (A) (A) (A) (A) (A) (A) (A) (A) (A) (A) (A)
                 (A) (A) (A) (A) (A) (A) (A) (A) (A) (A) (A) (A)
                 (A) (A) (A) (A) (A) (A) (A) (A) (A) (A) (A) (A)
                 (A) (A) (A) (A) (A) (A) (A) (A) (A) (A) (A) (A)
                 (A) (A) (A) (A) (A) (A) (A) (A) (A) (A) (A) (A)
                 (A) (A) (A) (A) (A) (A) (A) (A) (A) (A) (A) (A)
                 (A) (A) (A) (A) (A) (A) (A) (A) (A) (A) (A) (A)
                 (A) (A) (A) (A) (A) (A) (A) (A) (A) (A) (A) (A)
                 (A) (A) (A) (A) (A) (A) (A) (A) (A) (A) (A) (A)
                 (A) (A) (A) (A) (A) (A) (A) (A) (A) (A) (A) (A)
                 (A) (A) (A) (A) (A) (A) (A) (A) (A) (A) (A) (A)
                 (A) (A) (A) (A) (A) (A) (A) (A) (A) (A) (A) (A)
                 (A) (A) (A) (A) (A) (A) (A) (A) (A) (A) (A) (A)
                 (A) (A) (A) (A) (A) (A) (A) (A) (A) (A) (A) (A)
                 (A) (A) (A) (A) (A) (A) (A) (A) (A) (A) (A) (A)
                 (A) (A) (A) (A) (A) (A) (A) (A) (A) (A) (A) (A)
                 (A) (A) (A) (A) (A) (A) (A) (A) (A) (A) (A) (A)
                 (A) (A) (A) (A) (A) (A) (A) (A) (A) (A) (A) (A)
                 (A) (A) (A) (A) (A) (A) (A) (A) (A) (A) (A) (A)
                 (A) (A) (A) (A) (A) (A) (A) (A) (A) (A) (A) (A)
                 (A) (A) (A) (A) (A) (A) (A) (A) (A) (A) (A) (A)
                 (A) (A) (A) (A) (A) (A) (A) (A) (A) (A) (A) (A)
                 (A) (A) (A) (A) (A) (A) (A) (A) (A) (A) (A) (A)
                 (A) (A) (A) (A) (A) (A) (A) (A) (A) (A) (A) (A)
                 (A) (A) (A) (A) (A) (A) (A) (A) (A) (A) (A) (A)
                 (A) (A) (A) (A) (A) (A) (A) (A) (A) (A) (A) (A)
                 (A) (A) (A) (A) (A) (A) (A) (A) (A) (A) (A) (A)
                 (A) (A) (A) (A) (A) (A) (A) (A) (A) (A) (A) (A)
                 (A) (A) (A) (A) (A) (A) (A) (A) (A) (A) (A) (A)
                 (A) (A) (A) (A) (A) (A) (A) (A) (A) (A) (A) (A)
                 (A) (A) (A) (A) (A) (A) (A) (A) (A) (A) (A) (A)
                 (A) (A) (A) (A) (A) (A) (A) (A) (A) (A) (A) (A)
                 (A) (A) (A) (A) (A) (A) (A) (A) (A) (A) (A) (A)
                 (A) (A) (A) (A) (A) (A) (A) (A) (A) (A) (A) (A)
                 (A) (A) (A) (A) (A) (A) (A) (A) (A) (A) (A) (A)
                 (A) (A) (A) (A) (A) (A) (A) (A) (A) (A) (A) (A)
                 (A) (A) (A) (A) (A) (A) (A) (A) (A) (A) (A) (A)
                 (A) (A) (A) (A) (A) (A) (A) (A) (A) (A) (A) (A)
                 (A) (A) (A) (A) (A) (A) (A) (A) (A) (A) (A) (A)
                 (A) (A) (A) (A) (A) (A) (A) (A) (A) (A) (A) (A)
                 (A) (A) (A) (A) (A) (A) (A) (A) (A) (A) (A) (A)
                 (A) (A) (A) (A) (A) (A) (A) (A) (A) (A) (A) (A)
                 (A) (A) (A) (A) (A) (A) (A) (A) (A) (A) (A) (A)
                 (A) (A) (A) (A) (A) (A) (A) (A) (A) (A) (A) (A)
                 (A) (A) (A) (A) (A) (A) (A) (A) (A) (A) (A) (A)
                 (A) (A) (A) (A) (A) (A) (A) (A) (A) (A) (A) (A)
                 (A) (A) (A) (A) (A) (A) (A) (A) (A) (A) (A) (A)
                 (A) (A) (A) (A) (A) (A) (A) (A) (A) (A) (A) (A)
                 (A) (A) (A) (A) (A) (A) (A) (A) (A) (A) (A) (A)
                 (A) (A) (A) (A) (A) (A) (A) (A) (A) (A) (A) (A)
                 (A) (A) (A) (A) (A) (A) (A) (A) (A) (A) (A) (A)
                 (A) (A) (A) (A) (A) (A) (A) (A) (A) (A)
 Beta  Orbitals:
       Occupied  (A) (A) (A) (A) (A) (A) (A) (A) (A) (A) (A) (A)
                 (A) (A) (A) (A) (A) (A) (A) (A) (A) (A) (A) (A)
                 (A) (A) (A) (A) (A) (A) (A) (A) (A) (A) (A) (A)
                 (A) (A) (A) (A) (A) (A) (A) (A) (A) (A) (A) (A)
                 (A) (A) (A) (A) (A) (A) (A) (A) (A) (A) (A) (A)
                 (A) (A) (A) (A) (A) (A) (A) (A) (A) (A) (A) (A)
                 (A) (A) (A) (A) (A) (A) (A) (A) (A) (A) (A) (A)
                 (A) (A) (A) (A) (A) (A) (A) (A) (A) (A) (A) (A)
                 (A) (A) (A) (A) (A) (A) (A) (A) (A) (A) (A) (A)
                 (A) (A) (A) (A) (A) (A) (A) (A) (A) (A) (A) (A)
                 (A) (A) (A) (A) (A) (A) (A) (A) (A) (A) (A) (A)
                 (A) (A) (A) (A) (A) (A) (A) (A) (A) (A) (A) (A)
                 (A) (A) (A) (A) (A) (A) (A) (A) (A) (A) (A) (A)
                 (A) (A) (A) (A) (A) (A) (A) (A) (A) (A) (A) (A)
                 (A) (A) (A) (A) (A) (A) (A) (A) (A) (A) (A) (A)
                 (A) (A) (A) (A) (A) (A) (A) (A) (A) (A) (A) (A)
                 (A) (A) (A) (A) (A) (A) (A) (A) (A) (A) (A) (A)
                 (A) (A) (A) (A) (A) (A) (A) (A) (A) (A) (A) (A)
                 (A) (A) (A) (A) (A) (A) (A) (A) (A) (A) (A) (A)
                 (A) (A) (A) (A) (A) (A) (A) (A) (A) (A) (A) (A)
                 (A) (A) (A) (A) (A) (A) (A) (A) (A) (A) (A) (A)
                 (A) (A) (A) (A) (A) (A) (A) (A) (A)
       Virtual   (A) (A) (A) (A) (A) (A) (A) (A) (A) (A) (A) (A)
                 (A) (A) (A) (A) (A) (A) (A) (A) (A) (A) (A) (A)
                 (A) (A) (A) (A) (A) (A) (A) (A) (A) (A) (A) (A)
                 (A) (A) (A) (A) (A) (A) (A) (A) (A) (A) (A) (A)
                 (A) (A) (A) (A) (A) (A) (A) (A) (A) (A) (A) (A)
                 (A) (A) (A) (A) (A) (A) (A) (A) (A) (A) (A) (A)
                 (A) (A) (A) (A) (A) (A) (A) (A) (A) (A) (A) (A)
                 (A) (A) (A) (A) (A) (A) (A) (A) (A) (A) (A) (A)
                 (A) (A) (A) (A) (A) (A) (A) (A) (A) (A) (A) (A)
                 (A) (A) (A) (A) (A) (A) (A) (A) (A) (A) (A) (A)
                 (A) (A) (A) (A) (A) (A) (A) (A) (A) (A) (A) (A)
[...]
  Beta virt. eigenvalues --    5.22912   5.23445   5.23741   5.23952   5.24202
  Beta virt. eigenvalues --    5.24379   5.24732   5.24807   5.25319   5.25838
  Beta virt. eigenvalues --    5.26035   5.26451   5.26490   5.27426   5.27574
  Beta virt. eigenvalues --    5.27906   5.28150   5.28532   5.28827   5.28904
  Beta virt. eigenvalues --    5.29290   5.29322   5.29526   5.29775   5.30159
  Beta virt. eigenvalues --    5.30345   5.30790   5.31232   5.31311   5.31516
  Beta virt. eigenvalues --    5.31646   5.31910   5.32121   5.32897   5.33125
  Beta virt. eigenvalues --    5.33378   5.33562   5.33605   5.33823   5.34116
  Beta virt. eigenvalues --    5.34397   5.34695   5.34985   5.35043   5.35919
  Beta virt. eigenvalues --    5.36329   5.36467   5.36929   5.36952   5.37179
  Beta virt. eigenvalues --    5.37492   5.37842   5.38204   5.38702   5.38738
  Beta virt. eigenvalues --    5.38916   5.39369   5.39562   5.40029   5.40277
  Beta virt. eigenvalues --    5.40584   5.40985   5.41314   5.41332   5.41782
  Beta virt. eigenvalues --    5.42116   5.42303   5.42905   5.43117   5.43563
  Beta virt. eigenvalues --    5.44284   5.44579   5.44867   5.45031   5.45749
  Beta virt. eigenvalues --    5.45924   5.45985   5.46652   5.47381   5.47656
  Beta virt. eigenvalues --    5.47949   5.48507   5.48773   5.49044   5.49505
  Beta virt. eigenvalues --    5.49786   5.50447   5.50520   5.50607   5.51444
  Beta virt. eigenvalues --    5.51667   5.51808   5.52305   5.52536   5.53128
  Beta virt. eigenvalues --    5.53506   5.53758   5.53788   5.53984   5.54054
  Beta virt. eigenvalues --    5.54793   5.55089   5.55198   5.55487   5.55786
  Beta virt. eigenvalues --    5.55860   5.56622   5.56742   5.57205   5.57766
  Beta virt. eigenvalues --    5.57803   5.58562   5.59186   5.59505   5.59865
  Beta virt. eigenvalues --    5.60076   5.60178   5.60479   5.60686   5.61141
  Beta virt. eigenvalues --    5.61664   5.61692   5.62077   5.62236   5.62685
  Beta virt. eigenvalues --    5.63100   5.63299   5.63540   5.63672   5.64103
  Beta virt. eigenvalues --    5.64630   5.64944   5.65069   5.65167   5.66115
  Beta virt. eigenvalues --    5.66512   5.66866   5.67014   5.67363   5.67545
  Beta virt. eigenvalues --    5.68091   5.68862   5.69464   5.69699   5.70042
  Beta virt. eigenvalues --    5.70698   5.71126   5.71373   5.71886   5.72398
  Beta virt. eigenvalues --    5.73013   5.73334   5.74361   5.75326   5.76249
  Beta virt. eigenvalues --    5.76722   5.77246   5.77331   5.77833   5.78218
  Beta virt. eigenvalues --    5.78983   5.79700   5.80843   5.81321   5.81521
  Beta virt. eigenvalues --    5.82392   5.83083   5.83690   5.84290   5.84432
  Beta virt. eigenvalues --    5.85280   5.87148   5.88296   5.88762   5.90450
  Beta virt. eigenvalues --    5.91141   5.91794   5.92760   5.93208   5.93480
  Beta virt. eigenvalues --    5.94352   5.94362   5.95540   5.96155   5.96701
  Beta virt. eigenvalues --    5.97359   5.98237   5.98603   5.98992   5.99347
  Beta virt. eigenvalues --    6.01929   6.02020   6.02546   6.02925   6.03097
  Beta virt. eigenvalues --    6.04122   6.04739   6.05375   6.06140   6.06770
  Beta virt. eigenvalues --    6.07873   6.09143   6.09532   6.09827   6.12390
  Beta virt. eigenvalues --    6.13345   6.13896   6.15381   6.15947   6.16584
  Beta virt. eigenvalues --    6.17163   6.18244   6.18721   6.19385   6.21401
  Beta virt. eigenvalues --    6.28552   6.30445   6.34518   6.35500   6.36060
  Beta virt. eigenvalues --    6.36972   6.38042   6.38609   6.39606   6.41878
  Beta virt. eigenvalues --    6.41908   6.42802   6.44127   6.45438   6.45661
  Beta virt. eigenvalues --    6.46164   6.46362   6.46700   6.48211   6.51581
  Beta virt. eigenvalues --    6.52990   6.55159   6.59361   6.61764   6.64583
  Beta virt. eigenvalues --    6.64745   6.64904   6.66210   6.66961   6.67825
  Beta virt. eigenvalues --    6.68812   6.68949   6.69999   6.70030   6.70866
  Beta virt. eigenvalues --    6.71012   6.71731   6.74410   6.74773   6.75261
  Beta virt. eigenvalues --    6.76234   6.76321   6.77020   6.77077   6.83877
  Beta virt. eigenvalues --    6.85005   6.85177   6.86053   6.86527   6.86811
  Beta virt. eigenvalues --    6.87597   6.88387   6.88660   6.91238   6.91318
  Beta virt. eigenvalues --    6.95968   6.96349   6.98716   7.00199   7.00485
  Beta virt. eigenvalues --    7.01139   7.01550   7.01613   7.02581   7.05816
  Beta virt. eigenvalues --    7.06726   7.07445   7.07898   7.09207   7.10337
  Beta virt. eigenvalues --    7.12197   7.13748   7.14512   7.18751   7.18971
  Beta virt. eigenvalues --    7.19578   7.24257   7.24636   7.27615   7.28291
  Beta virt. eigenvalues --    7.32886   7.33698   7.34768   7.34966   7.35064
  Beta virt. eigenvalues --    7.35408   7.36587   7.40333   7.41878   7.44923
  Beta virt. eigenvalues --    7.53586   8.47302   8.48315   8.57659   8.59277
  Beta virt. eigenvalues --    8.81470   8.86817   8.91623   8.92055   8.94141
  Beta virt. eigenvalues --    9.01493  15.86745  22.86880  22.89580  22.91815
  Beta virt. eigenvalues --   22.97924  23.03783  23.11845  23.13727  23.16200
  Beta virt. eigenvalues --   23.16658  23.17629  23.18582  23.24181  23.25159
  Beta virt. eigenvalues --   23.28380  23.30102  23.30374  23.33088  23.33283
  Beta virt. eigenvalues --   23.33991  23.34831  23.35789  23.36295  23.37218
  Beta virt. eigenvalues --   23.39512  23.41546  23.43164  23.45850  23.47935
  Beta virt. eigenvalues --   23.48810  23.49333  23.50931  23.51328  23.53052
  Beta virt. eigenvalues --   23.54058  23.54209  23.55463  23.55992  23.58025
  Beta virt. eigenvalues --   23.58846  23.60869  23.64132  23.64453  23.65620
  Beta virt. eigenvalues --   23.68217  23.72443  23.74756  23.86605  23.91587
  Beta virt. eigenvalues --   24.04940  24.09808  24.24348  32.20426  33.11144
  Beta virt. eigenvalues --   33.13030  33.13798  33.16026  33.17117  33.26491
  Beta virt. eigenvalues --   33.31079  33.38501  44.09015  44.13377  44.15712
  Beta virt. eigenvalues --   44.16441  44.18065  44.21685  44.24322  44.29154
  Beta virt. eigenvalues --   44.49024  57.36395  57.54477
          Condensed to atoms (all electrons):
          Atomic-Atomic Spin Densities.
 Mulliken charges and spin densities:
               1          2
     1  C   -0.245292  -0.000481
     2  O   -0.309574   0.004973
     3  C    0.209022   0.039491
     4  C   -0.189269  -0.022713
     5  C   -0.141008   0.036142
     6  C   -0.007758  -0.036399
     7  C   -0.108023   0.143594
     8  C   -0.140594  -0.091341
     9  C   -0.058742   0.187665
    10  C   -0.101923  -0.090955
    11  C   -0.056691   0.165506
    12  C   -0.437111  -0.009904
    13  C    0.050503  -0.116726
    14  N   -0.128081   0.032798
    15  B    0.366110   0.004478
    16  F   -0.362414   0.002087
    17  F   -0.392437   0.001186
    18  N   -0.150449   0.037931
    19  C   -0.034279   0.188338
    20  C   -0.107451  -0.087250
    21  C   -0.149178   0.138714
    22  C   -0.008810  -0.031414
    23  C   -0.048825   0.034345
    24  C   -0.036710  -0.026757
    25  N   -0.260801  -0.001489
    26  C   -0.244799  -0.000246
    27  C    0.294659  -0.000067
    28  O   -0.472717  -0.000021
    29  N   -0.210382  -0.000069
    30  C   -0.137109  -0.000021
    31  C   -0.062996   0.000005
    32  O   -0.423887  -0.000000
    33  C   -0.301896   0.000102
    34  C    0.324759   0.000351
    35  O   -0.476776  -0.000022
    36  N   -0.225003   0.000076
    37  C   -0.198789  -0.000007
    38  C   -0.038762   0.000022
    39  O   -0.422895  -0.000003
    40  C    0.051376   0.054526
    41  C   -0.147440  -0.025766
    42  C   -0.177898   0.049930
    43  N   -0.204952   0.006017
    44  C   -0.180408   0.000567
    45  C    0.309511  -0.000267
    46  O   -0.510255   0.000077
    47  N   -0.173203   0.000138
    48  C   -0.188917   0.000031
    49  C   -0.042355   0.000002
    50  O   -0.460919  -0.000002
    51  C   -0.408933  -0.000021
    52  C    0.506329   0.000363
    53  O   -0.509847  -0.000088
    54  N   -0.256163  -0.000213
    55  C   -0.163249   0.000006
    56  C   -0.029540  -0.000006
    57  O   -0.431726  -0.000000
    58  C   -0.123504  -0.097733
    59  C   -0.051567   0.164414
    60  C   -0.432658  -0.010077
    61  C    0.062761  -0.120937
    62  C    0.101829   0.427843
    63  C   -0.242551  -0.036771
    64  C   -0.142252   0.019353
    65  C   -0.108369  -0.010091
    66  C    0.100216   0.020414
    67  C   -0.101253  -0.010252
    68  C   -0.156291   0.020612
    69  C   -0.199842  -0.004766
    70  N   -0.084007   0.007633
    71  C   -0.195981   0.046298
    72  C   -0.168159  -0.021455
    73  H    0.144360   0.000450
    74  H    0.147291  -0.000026
    75  H    0.144472   0.000458
    76  H    0.152741   0.000388
    77  H    0.137770  -0.000864
    78  H    0.101890  -0.008318
    79  H    0.122242   0.003291
    80  H    0.151281   0.000909
    81  H    0.142548   0.005465
    82  H    0.147712   0.007965
    83  H    0.122213   0.000749
    84  H    0.129876   0.003054
    85  H    0.100646  -0.009070
    86  H    0.136083  -0.000756
    87  H    0.170256  -0.000147
    88  H    0.193869  -0.000063
    89  H    0.194169  -0.000023
    90  H    0.118640   0.000001
    91  H    0.154294   0.000000
    92  H    0.127698  -0.000000
    93  H    0.120909   0.000000
    94  H    0.251920   0.000000
    95  H    0.187135   0.000001
    96  H    0.190864  -0.000330
    97  H    0.247975  -0.000044
    98  H    0.158439  -0.000000
    99  H    0.150562   0.000004
   100  H    0.137112   0.000002
   101  H    0.116641  -0.000003
   102  H    0.253244  -0.000000
   103  H    0.141217   0.000128
   104  H    0.143033  -0.001672
   105  H    0.133988  -0.000185
   106  H    0.192435   0.000803
   107  H    0.210793  -0.000017
   108  H    0.145798  -0.000000
   109  H    0.149399  -0.000004
   110  H    0.119749  -0.000000
   111  H    0.124972   0.000001
   112  H    0.265490   0.000000
   113  H    0.200502  -0.000076
   114  H    0.166568   0.000403
   115  H    0.216659  -0.000008
   116  H    0.155495  -0.000001
   117  H    0.139090   0.000005
   118  H    0.127424   0.000000
   119  H    0.125247  -0.000002
   120  H    0.248676   0.000002
   121  H    0.154232   0.001578
   122  H    0.146028   0.008102
   123  H    0.122069   0.000789
   124  H    0.143160   0.005180
   125  H    0.174482   0.000489
   126  H    0.167902   0.000597
   127  H    0.167943   0.000591
   128  H    0.176611   0.000219
   129  H    0.145006  -0.001926
   130  H    0.147771   0.000210
 Sum of Mulliken charges =  -1.00000   1.00000
 Mulliken charges and spin densities with hydrogens summed into heavy atoms:
               1          2
     1  C    0.190831   0.000401
     2  O   -0.309574   0.004973
     3  C    0.209022   0.039491
     4  C   -0.036528  -0.022325
     5  C   -0.003238   0.035279
     6  C   -0.007758  -0.036399
     7  C   -0.006133   0.135277
     8  C   -0.018352  -0.088050
     9  C   -0.058742   0.187665
    10  C    0.049358  -0.090046
    11  C   -0.056691   0.165506
    12  C   -0.024638   0.004275
    13  C    0.050503  -0.116726
    14  N   -0.128081   0.032798
    15  B    0.366110   0.004478
    16  F   -0.362414   0.002087
    17  F   -0.392437   0.001186
    18  N   -0.150449   0.037931
    19  C   -0.034279   0.188338
    20  C    0.022425  -0.084196
    21  C   -0.048532   0.129644
    22  C   -0.008810  -0.031414
    23  C    0.087258   0.033589
    24  C   -0.036710  -0.026757
    25  N   -0.260801  -0.001489
    26  C    0.119326  -0.000456
    27  C    0.294659  -0.000067
    28  O   -0.472717  -0.000021
    29  N   -0.016214  -0.000092
    30  C    0.135825  -0.000020
    31  C    0.185610   0.000005
    32  O   -0.171968  -0.000000
    33  C    0.076103  -0.000226
    34  C    0.324759   0.000351
    35  O   -0.476776  -0.000022
    36  N    0.022972   0.000032
    37  C    0.110213  -0.000004
    38  C    0.214992   0.000020
    39  O   -0.169651  -0.000003
    40  C    0.051376   0.054526
    41  C   -0.006223  -0.025638
    42  C   -0.034865   0.048258
    43  N   -0.204952   0.006017
    44  C    0.146015   0.001186
    45  C    0.309511  -0.000267
    46  O   -0.510255   0.000077
    47  N    0.037590   0.000121
    48  C    0.106280   0.000026
    49  C    0.202365   0.000003
    50  O   -0.195429  -0.000001
    51  C   -0.041864   0.000307
    52  C    0.506329   0.000363
    53  O   -0.509847  -0.000088
    54  N   -0.039504  -0.000221
    55  C    0.131337   0.000011
    56  C    0.223130  -0.000008
    57  O   -0.183050   0.000002
    58  C    0.030728  -0.096154
    59  C   -0.051567   0.164414
    60  C   -0.021401   0.003994
    61  C    0.062761  -0.120937
    62  C    0.101829   0.427843
    63  C   -0.242551  -0.036771
    64  C    0.032230   0.019842
    65  C    0.059534  -0.009494
    66  C    0.100216   0.020414
    67  C    0.066691  -0.009661
    68  C    0.020319   0.020831
    69  C   -0.199842  -0.004766
    70  N   -0.084007   0.007633
    71  C   -0.050975   0.044372
    72  C   -0.020388  -0.021245
 Electronic spatial extent (au):  <R**2>=         105770.5424
 Charge=             -1.0000 electrons
 Dipole moment (field-independent basis, Debye):
    X=             16.2892    Y=             10.3493    Z=             -9.3718  Tot=             21.4541
 Quadrupole moment (field-independent basis, Debye-Ang):
   XX=           -760.3684   YY=           -475.8222   ZZ=           -433.5561
   XY=            -21.6765   XZ=            -36.9152   YZ=             21.6076
 Traceless Quadrupole moment (field-independent basis, Debye-Ang):
   XX=           -203.7862   YY=             80.7600   ZZ=            123.0262
   XY=            -21.6765   XZ=            -36.9152   YZ=             21.6076
 Octapole moment (field-independent basis, Debye-Ang**2):
  XXX=            328.8714  YYY=            488.6745  ZZZ=            -74.4731  XYY=            971.3017
  XXY=            971.5796  XXZ=           -305.7094  XZZ=             94.3166  YZZ=            -53.1009
  YYZ=           -210.6617  XYZ=             22.4744
 Hexadecapole moment (field-independent basis, Debye-Ang**3):
 XXXX=        -136705.5643 YYYY=         -44949.0260 ZZZZ=          -3627.2611 XXXY=         -10551.4458
 XXXZ=           -379.5238 YYYX=          -4849.0424 YYYZ=            716.8373 ZZZX=           -721.1558
 ZZZY=            508.1677 XXYY=         -31715.7325 XXZZ=         -17794.7904 YYZZ=          -6894.1110
 XXYZ=           2226.0449 YYXZ=             39.4772 ZZXY=            -55.2594
 N-N= 1.091363958796D+04 E-N=-2.973640509611D+04  KE= 3.354902711174D+03
 Leave Link  601 at Fri Nov  7 12:32:52 2025, MaxMem= 30870077440 cpu:             307.8 elap:               5.5
 (Enter /public/software/gauss/g16/l9999.exe)
 1\1\GINC-CU015\SP\UM062X\def2TZVPP\C51H58B1F2N9O9(1-,2)\BAIDING\07-Nov
 -2025\0\\#p M062X/DEF2TZVPP scrf=(solvent=water) em=GD3\\Energy calcul
 ation for M100035858_reduced\\-1,2\C,0,-3.067457,9.321047,-1.274808\O,
 0,-4.47269,9.11725,-1.107401\C,0,-4.921713,7.827718,-0.956085\C,0,-6.3
 0626,7.673084,-0.795156\C,0,-6.851016,6.406548,-0.636872\C,0,-6.047211
 ,5.243514,-0.632169\C,0,-6.682472,3.941926,-0.461238\C,0,-6.058924,2.7
 32016,-0.412618\C,0,-6.727907,1.467642,-0.275491\C,0,-8.103384,1.17732
 9,-0.33557\C,0,-8.288808,-0.195552,-0.17316\C,0,-9.627571,-0.873841,-0
 .242294\C,0,-6.985794,-0.762431,0.008941\N,0,-6.055357,0.270559,-0.076
 35\B,0,-4.540525,0.101704,0.123461\F,0,-4.133103,0.638839,1.368059\F,0
 ,-3.833418,0.798818,-0.890518\N,0,-4.222933,-1.4021,0.05179\C,0,-2.953
 509,-1.957892,0.143736\C,0,-1.75088,-1.186498,0.009792\C,0,-0.490345,-
 1.664368,0.211715\C,0,0.751366,-0.919354,0.055275\C,0,1.969761,-1.5538
 03,0.36815\C,0,3.22528,-0.942559,0.266648\N,0,4.407765,-1.68177,0.6391
 17\C,0,5.158729,-1.079287,1.758325\C,0,6.643082,-1.442951,1.825784\O,0
 ,7.286813,-1.186085,2.8578\N,0,7.188549,-2.02573,0.744649\C,0,8.600083
 ,-2.374254,0.641304\C,0,8.816829,-3.288233,-0.558154\O,0,10.206117,-3.
 609843,-0.591693\C,0,4.216148,-3.11585,0.889189\C,0,3.927861,-3.993674
 ,-0.324297\O,0,3.407335,-5.108499,-0.152419\N,0,4.309905,-3.522778,-1.
 527295\C,0,4.34526,-4.35052,-2.725225\C,0,5.711865,-4.99296,-2.960646\
 O,0,6.171707,-5.760476,-1.848168\C,0,3.289257,0.398703,-0.236314\C,0,2
 .063469,1.035442,-0.510671\C,0,0.830204,0.415448,-0.372474\N,0,4.51612
 7,1.109416,-0.425642\C,0,5.526342,0.516127,-1.300046\C,0,6.984149,0.72
 0102,-0.87638\O,0,7.861399,0.226203,-1.621869\N,0,7.222586,1.417632,0.
 240421\C,0,8.512237,1.625878,0.918979\C,0,9.706071,1.971141,0.032003\O
 ,0,10.26909,0.850303,-0.641727\C,0,4.444471,2.565247,-0.539133\C,0,4.3
 18355,3.22315,0.834259\O,0,4.997838,2.811607,1.79418\N,0,3.488818,4.27
 6228,0.91842\C,0,3.371337,5.111284,2.112234\C,0,4.372785,6.263469,2.13
 8429\O,0,4.159036,7.209358,1.089336\C,0,-3.107976,-3.338837,0.364468\C
 ,0,-4.467377,-3.643921,0.421998\C,0,-5.003824,-5.023315,0.679456\C,0,-
 5.169639,-2.411961,0.213286\C,0,-6.557656,-2.107138,0.185398\C,0,-7.56
 4641,-3.192872,0.325201\C,0,-8.345066,-3.306029,1.490731\C,0,-9.287768
 ,-4.317665,1.630678\C,0,-9.472461,-5.243456,0.588091\C,0,-8.705369,-5.
 143667,-0.586567\C,0,-7.763711,-4.128941,-0.706682\C,0,-10.440178,-6.2
 85848,0.721572\N,0,-11.230292,-7.137838,0.830207\C,0,-4.659007,5.42852
 ,-0.796886\C,0,-4.097433,6.693881,-0.955673\H,0,-2.696472,8.824473,-2.
 178292\H,0,-2.931932,10.398922,-1.373649\H,0,-2.505329,8.962731,-0.405
 313\H,0,-6.937657,8.556316,-0.797071\H,0,-7.926076,6.304343,-0.512915\
 H,0,-7.766824,3.974121,-0.364871\H,0,-4.977885,2.689679,-0.493059\H,0,
 -8.888664,1.9001,-0.517045\H,0,-9.625458,-1.734844,-0.918118\H,0,-9.97
 0185,-1.239479,0.732442\H,0,-10.377276,-0.165215,-0.60765\H,0,-1.88435
 7,-0.151149,-0.286219\H,0,-0.368054,-2.700239,0.52443\H,0,1.902444,-2.
 573543,0.724218\H,0,5.097918,0.008051,1.688586\H,0,4.724578,-1.360505,
 2.728478\H,0,6.608643,-2.108695,-0.080949\H,0,9.217442,-1.476199,0.523
 964\H,0,8.912065,-2.879572,1.560102\H,0,8.197828,-4.191204,-0.464696\H
 ,0,8.509668,-2.763916,-1.475239\H,0,10.351233,-4.171011,-1.366249\H,0,
 5.153518,-3.504688,1.29633\H,0,3.453215,-3.328426,1.64813\H,0,4.793211
 ,-2.633713,-1.542028\H,0,3.580067,-5.122496,-2.616605\H,0,4.084265,-3.
 738276,-3.593559\H,0,5.654791,-5.603462,-3.873179\H,0,6.468894,-4.2186
 64,-3.122583\H,0,5.484095,-6.408557,-1.634478\H,0,2.062112,2.055958,-0
 .868127\H,0,-0.065436,0.974641,-0.62291\H,0,5.376212,-0.561295,-1.3466
 76\H,0,5.447399,0.890128,-2.331409\H,0,6.40793,1.719535,0.777272\H,0,8
 .343699,2.45683,1.609298\H,0,8.756557,0.74492,1.523383\H,0,9.425963,2.
 766818,-0.674461\H,0,10.487407,2.372937,0.685119\H,0,9.514376,0.47702,
 -1.151145\H,0,5.396765,2.918296,-0.944253\H,0,3.681614,2.925446,-1.237
 67\H,0,2.993485,4.561535,0.083308\H,0,2.352839,5.505885,2.145272\H,0,3
 .523297,4.47866,2.989917\H,0,4.250235,6.809068,3.079264\H,0,5.39599,5.
 86631,2.106825\H,0,4.410013,6.780593,0.258381\H,0,-2.29998,-4.052495,0
 .463853\H,0,-5.454725,-5.479035,-0.209398\H,0,-4.187701,-5.676551,1.00
 3385\H,0,-5.769426,-5.033639,1.461593\H,0,-8.200752,-2.595431,2.298068
 \H,0,-9.877127,-4.40149,2.537502\H,0,-8.855892,-5.85471,-1.391807\H,0,
 -7.177236,-4.050184,-1.616203\H,0,-3.99577,4.568994,-0.804109\H,0,-3.0
 25081,6.785845,-1.080068\\Version=ES64L-G16RevA.03\State=2-A\HF=-3373.
 0580558\S2=0.794907\S2-1=0.\S2A=0.751571\RMSD=2.290e-09\Dipole=6.40867
 23,4.0717433,-3.6871525\Quadrupole=-151.5100306,60.0430979,91.4669328,
 -16.1159836,-27.4455622,16.0647356\PG=C01 [X(C51H58B1F2N9O9)]\\@


 STEINBACH'S GUIDELINES FOR SYSTEMS PROGRAMMING:
 NEVER TEST FOR AN ERROR CONDITION YOU DON'T KNOW HOW
 TO HANDLE.
 Job cpu time:       3 days 12 hours 24 minutes 16.6 seconds.
 Elapsed time:       0 days  1 hours 20 minutes  4.6 seconds.
 File lengths (MBytes):  RWF=   9775 Int=      0 D2E=      0 Chk=    641 Scr=      1
 Normal termination of Gaussian 16 at Fri Nov  7 12:32:55 2025.
