 Entering Gaussian System, Link 0=g16
 Input=M100033020_reduced_sp.gjf
 Output=M100033020_reduced_sp.log
 Initial command:
 /public/software/gauss/g16/l1.exe "/public/home/baiding/1101_v2_sp/tmp_M100033020_reduced_sp_1568608/Gau-4131890.inp" -scrdir="/public/home/baiding/1101_v2_sp/tmp_M100033020_reduced_sp_1568608/"
 Entering Link 1 = /public/software/gauss/g16/l1.exe PID=   4131891.
  
 Copyright (c) 1988,1990,1992,1993,1995,1998,2003,2009,2016,
            Gaussian, Inc.  All Rights Reserved.
  
 This is part of the Gaussian(R) 16 program.  It is based on
 the Gaussian(R) 09 system (copyright 2009, Gaussian, Inc.),
 the Gaussian(R) 03 system (copyright 2003, Gaussian, Inc.),
 the Gaussian(R) 98 system (copyright 1998, Gaussian, Inc.),
 the Gaussian(R) 94 system (copyright 1995, Gaussian, Inc.),
 the Gaussian 92(TM) system (copyright 1992, Gaussian, Inc.),
 the Gaussian 90(TM) system (copyright 1990, Gaussian, Inc.),
 the Gaussian 88(TM) system (copyright 1988, Gaussian, Inc.),
 the Gaussian 86(TM) system (copyright 1986, Carnegie Mellon
 University), and the Gaussian 82(TM) system (copyright 1983,
 Carnegie Mellon University). Gaussian is a federally registered
 trademark of Gaussian, Inc.
  
 This software contains proprietary and confidential information,
 including trade secrets, belonging to Gaussian, Inc.
  
 This software is provided under written license and may be
 used, copied, transmitted, or stored only in accord with that
 written license.
  
 The following legend is applicable only to US Government
 contracts under FAR:
  
                    RESTRICTED RIGHTS LEGEND
  
 Use, reproduction and disclosure by the US Government is
 subject to restrictions as set forth in subparagraphs (a)
 and (c) of the Commercial Computer Software - Restricted
 Rights clause in FAR 52.227-19.
  
 Gaussian, Inc.
 340 Quinnipiac St., Bldg. 40, Wallingford CT 06492
  
  
 ---------------------------------------------------------------
 Warning -- This program may not be used in any manner that
 competes with the business of Gaussian, Inc. or will provide
 assistance to any competitor of Gaussian, Inc.  The licensee
 of this program is prohibited from giving any competitor of
 Gaussian, Inc. access to this program.  By using this program,
 the user acknowledges that Gaussian, Inc. is engaged in the
 business of creating and licensing software in the field of
 computational chemistry and represents and warrants to the
 licensee that it is not a competitor of Gaussian, Inc. and that
 it will not use this program in any manner prohibited above.
 ---------------------------------------------------------------
  

 Cite this work as:
 Gaussian 16, Revision A.03,
 M. J. Frisch, G. W. Trucks, H. B. Schlegel, G. E. Scuseria, 
 M. A. Robb, J. R. Cheeseman, G. Scalmani, V. Barone, 
 G. A. Petersson, H. Nakatsuji, X. Li, M. Caricato, A. V. Marenich, 
 J. Bloino, B. G. Janesko, R. Gomperts, B. Mennucci, H. P. Hratchian, 
 J. V. Ortiz, A. F. Izmaylov, J. L. Sonnenberg, D. Williams-Young, 
 F. Ding, F. Lipparini, F. Egidi, J. Goings, B. Peng, A. Petrone, 
 T. Henderson, D. Ranasinghe, V. G. Zakrzewski, J. Gao, N. Rega, 
 G. Zheng, W. Liang, M. Hada, M. Ehara, K. Toyota, R. Fukuda, 
 J. Hasegawa, M. Ishida, T. Nakajima, Y. Honda, O. Kitao, H. Nakai, 
 T. Vreven, K. Throssell, J. A. Montgomery, Jr., J. E. Peralta, 
 F. Ogliaro, M. J. Bearpark, J. J. Heyd, E. N. Brothers, K. N. Kudin, 
 V. N. Staroverov, T. A. Keith, R. Kobayashi, J. Normand, 
 K. Raghavachari, A. P. Rendell, J. C. Burant, S. S. Iyengar, 
 J. Tomasi, M. Cossi, J. M. Millam, M. Klene, C. Adamo, R. Cammi, 
 J. W. Ochterski, R. L. Martin, K. Morokuma, O. Farkas, 
 J. B. Foresman, and D. J. Fox, Gaussian, Inc., Wallingford CT, 2016.
 
 ******************************************
 Gaussian 16:  ES64L-G16RevA.03 25-Dec-2016
                 6-Nov-2025 
 ******************************************
 %nprocshared=64
 Will use up to   64 processors via shared memory.
 %mem=230GB
 %chk=M100033020_reduced_sp.chk
 ----------------------------------------------
 #p M062X/DEF2TZVPP scrf=(solvent=water) em=GD3
 ----------------------------------------------
 1/38=1,172=1/1;
 2/12=2,17=6,18=5,40=1/2;
 3/5=44,7=202,11=2,25=1,30=1,70=2201,72=1,74=-55,124=31/1,2,3;
 4//1;
 5/5=2,38=5,53=1/2;
 6/7=2,8=2,9=2,10=2,28=1/1;
 99/5=1,9=1/99;
 Leave Link    1 at Thu Nov  6 07:06:30 2025, MaxMem= 30870077440 cpu:              10.0 elap:               0.2
 (Enter /public/software/gauss/g16/l101.exe)
 -----------------------------------------
 Energy calculation for M100033020_reduced
 -----------------------------------------
 Symbolic Z-matrix:
 Charge = -1 Multiplicity = 2
 C                    -5.60539   1.17259  -0.2226 
 C                    -4.11798   1.34592  -0.09949 
 C                    -3.45537   2.57652  -0.0625 
 C                    -2.07721   2.32431   0.07405 
 C                    -0.99022   3.21329   0.07915 
 C                     0.32546   2.73943   0.09658 
 C                     1.53445   3.4588   -0.04315 
 C                     2.58026   2.54969  -0.07244 
 C                     4.02533   2.93085  -0.20768 
 C                     2.0106    1.24461   0.08628 
 C                     2.71049   0.00039   0.18015 
 C                     2.30033  -1.2202    0.74674 
 C                     3.25055  -2.23711   0.65926 
 C                     4.43284  -1.85899   0.02572 
 C                     5.59165  -2.65544  -0.20178 
 O                     6.63953  -2.27096  -0.75516 
 S                     4.34843  -0.17699  -0.47509 
 N                     0.61898   1.3874    0.186 
 B                    -0.48456   0.29463   0.31384 
 F                    -0.29114  -0.70494  -0.64698 
 F                    -0.40962  -0.2852    1.61412 
 N                    -1.88131   0.95149   0.13881 
 C                    -3.12907   0.33963   0.03251 
 C                    -3.33651  -1.09923   0.07771 
 C                    -2.70142  -2.07261   0.82534 
 C                    -3.1902   -3.38944   0.5962 
 C                    -4.20011  -3.43846  -0.32562 
 S                    -4.56822  -1.85804  -0.93995 
 H                    -5.91374   0.89443  -1.23765 
 H                    -5.98956   0.40101   0.45218 
 H                    -6.11102   2.11207   0.01992 
 H                    -3.90842   3.55715  -0.13145 
 H                    -1.17031   4.27882  -0.00133 
 H                     1.61332   4.535    -0.1259 
 H                     4.44701   2.63748  -1.17623 
 H                     4.12725   4.0166   -0.12527 
 H                     4.65152   2.4754    0.5669 
 H                     1.34812  -1.33072   1.24148 
 H                     3.10631  -3.2343    1.06263 
 H                     5.49973  -3.69776   0.15939 
 H                    -1.91226  -1.83509   1.52455 
 H                    -2.81222  -4.26639   1.11039 
 H                    -4.76031  -4.29699  -0.67147 
 
 ITRead=  0  0  0  0  0  0  0  0  0  0  0  0  0  0  0  0  0  0  0  0
 ITRead=  0  0  0  0  0  0  0  0  0  0  0  0  0  0  0  0  0  0  0  0
 ITRead=  0  0  0
 MicOpt= -1 -1 -1 -1 -1 -1 -1 -1 -1 -1 -1 -1 -1 -1 -1 -1 -1 -1 -1 -1
 MicOpt= -1 -1 -1 -1 -1 -1 -1 -1 -1 -1 -1 -1 -1 -1 -1 -1 -1 -1 -1 -1
 MicOpt= -1 -1 -1
 NAtoms=     43 NQM=       43 NQMF=       0 NMMI=      0 NMMIF=      0
                NMic=       0 NMicF=      0.
                    Isotopes and Nuclear Properties:
 (Nuclear quadrupole moments (NQMom) in fm**2, nuclear magnetic moments (NMagM)
  in nuclear magnetons)

  Atom         1           2           3           4           5           6           7           8           9          10
 IAtWgt=          12          12          12          12          12          12          12          12          12          12
 AtmWgt=  12.0000000  12.0000000  12.0000000  12.0000000  12.0000000  12.0000000  12.0000000  12.0000000  12.0000000  12.0000000
 NucSpn=           0           0           0           0           0           0           0           0           0           0
 AtZEff=  -0.0000000  -0.0000000  -0.0000000  -0.0000000  -0.0000000  -0.0000000  -0.0000000  -0.0000000  -0.0000000  -0.0000000
 NQMom=    0.0000000   0.0000000   0.0000000   0.0000000   0.0000000   0.0000000   0.0000000   0.0000000   0.0000000   0.0000000
 NMagM=    0.0000000   0.0000000   0.0000000   0.0000000   0.0000000   0.0000000   0.0000000   0.0000000   0.0000000   0.0000000
 AtZNuc=   6.0000000   6.0000000   6.0000000   6.0000000   6.0000000   6.0000000   6.0000000   6.0000000   6.0000000   6.0000000

  Atom        11          12          13          14          15          16          17          18          19          20
 IAtWgt=          12          12          12          12          12          16          32          14          11          19
 AtmWgt=  12.0000000  12.0000000  12.0000000  12.0000000  12.0000000  15.9949146  31.9720718  14.0030740  11.0093053  18.9984033
 NucSpn=           0           0           0           0           0           0           0           2           3           1
 AtZEff=  -0.0000000  -0.0000000  -0.0000000  -0.0000000  -0.0000000  -0.0000000  -0.0000000  -0.0000000  -0.0000000  -0.0000000
 NQMom=    0.0000000   0.0000000   0.0000000   0.0000000   0.0000000   0.0000000   0.0000000   2.0440000   4.0590000   0.0000000
 NMagM=    0.0000000   0.0000000   0.0000000   0.0000000   0.0000000   0.0000000   0.0000000   0.4037610   2.6886370   2.6288670
 AtZNuc=   6.0000000   6.0000000   6.0000000   6.0000000   6.0000000   8.0000000  16.0000000   7.0000000   5.0000000   9.0000000

  Atom        21          22          23          24          25          26          27          28          29          30
 IAtWgt=          19          14          12          12          12          12          12          32           1           1
 AtmWgt=  18.9984033  14.0030740  12.0000000  12.0000000  12.0000000  12.0000000  12.0000000  31.9720718   1.0078250   1.0078250
 NucSpn=           1           2           0           0           0           0           0           0           1           1
 AtZEff=  -0.0000000  -0.0000000  -0.0000000  -0.0000000  -0.0000000  -0.0000000  -0.0000000  -0.0000000  -0.0000000  -0.0000000
 NQMom=    0.0000000   2.0440000   0.0000000   0.0000000   0.0000000   0.0000000   0.0000000   0.0000000   0.0000000   0.0000000
 NMagM=    2.6288670   0.4037610   0.0000000   0.0000000   0.0000000   0.0000000   0.0000000   0.0000000   2.7928460   2.7928460
 AtZNuc=   9.0000000   7.0000000   6.0000000   6.0000000   6.0000000   6.0000000   6.0000000  16.0000000   1.0000000   1.0000000

  Atom        31          32          33          34          35          36          37          38          39          40
 IAtWgt=           1           1           1           1           1           1           1           1           1           1
 AtmWgt=   1.0078250   1.0078250   1.0078250   1.0078250   1.0078250   1.0078250   1.0078250   1.0078250   1.0078250   1.0078250
 NucSpn=           1           1           1           1           1           1           1           1           1           1
 AtZEff=  -0.0000000  -0.0000000  -0.0000000  -0.0000000  -0.0000000  -0.0000000  -0.0000000  -0.0000000  -0.0000000  -0.0000000
 NQMom=    0.0000000   0.0000000   0.0000000   0.0000000   0.0000000   0.0000000   0.0000000   0.0000000   0.0000000   0.0000000
 NMagM=    2.7928460   2.7928460   2.7928460   2.7928460   2.7928460   2.7928460   2.7928460   2.7928460   2.7928460   2.7928460
 AtZNuc=   1.0000000   1.0000000   1.0000000   1.0000000   1.0000000   1.0000000   1.0000000   1.0000000   1.0000000   1.0000000

  Atom        41          42          43
 IAtWgt=           1           1           1
 AtmWgt=   1.0078250   1.0078250   1.0078250
 NucSpn=           1           1           1
 AtZEff=  -0.0000000  -0.0000000  -0.0000000
 NQMom=    0.0000000   0.0000000   0.0000000
 NMagM=    2.7928460   2.7928460   2.7928460
 AtZNuc=   1.0000000   1.0000000   1.0000000
 Leave Link  101 at Thu Nov  6 07:06:31 2025, MaxMem= 30870077440 cpu:               3.6 elap:               0.1
 (Enter /public/software/gauss/g16/l202.exe)
                          Input orientation:                          
 ---------------------------------------------------------------------
 Center     Atomic      Atomic             Coordinates (Angstroms)
 Number     Number       Type             X           Y           Z
 ---------------------------------------------------------------------
      1          6           0       -5.605391    1.172591   -0.222600
      2          6           0       -4.117979    1.345922   -0.099491
      3          6           0       -3.455365    2.576517   -0.062496
      4          6           0       -2.077215    2.324309    0.074050
      5          6           0       -0.990221    3.213294    0.079152
      6          6           0        0.325459    2.739428    0.096581
      7          6           0        1.534454    3.458795   -0.043151
      8          6           0        2.580262    2.549689   -0.072436
      9          6           0        4.025333    2.930851   -0.207677
     10          6           0        2.010600    1.244608    0.086283
     11          6           0        2.710486    0.000393    0.180145
     12          6           0        2.300326   -1.220201    0.746737
     13          6           0        3.250554   -2.237108    0.659263
     14          6           0        4.432838   -1.858987    0.025723
     15          6           0        5.591648   -2.655439   -0.201781
     16          8           0        6.639525   -2.270962   -0.755164
     17         16           0        4.348430   -0.176985   -0.475088
     18          7           0        0.618983    1.387397    0.185997
     19          5           0       -0.484555    0.294625    0.313844
     20          9           0       -0.291139   -0.704941   -0.646977
     21          9           0       -0.409616   -0.285198    1.614116
     22          7           0       -1.881305    0.951489    0.138813
     23          6           0       -3.129071    0.339627    0.032509
     24          6           0       -3.336513   -1.099233    0.077709
     25          6           0       -2.701418   -2.072605    0.825342
     26          6           0       -3.190202   -3.389436    0.596197
     27          6           0       -4.200112   -3.438456   -0.325617
     28         16           0       -4.568221   -1.858042   -0.939951
     29          1           0       -5.913743    0.894432   -1.237645
     30          1           0       -5.989562    0.401008    0.452178
     31          1           0       -6.111020    2.112070    0.019919
     32          1           0       -3.908423    3.557145   -0.131451
     33          1           0       -1.170308    4.278824   -0.001331
     34          1           0        1.613323    4.534996   -0.125896
     35          1           0        4.447014    2.637483   -1.176231
     36          1           0        4.127255    4.016602   -0.125265
     37          1           0        4.651523    2.475395    0.566899
     38          1           0        1.348124   -1.330718    1.241476
     39          1           0        3.106312   -3.234300    1.062630
     40          1           0        5.499727   -3.697757    0.159388
     41          1           0       -1.912262   -1.835089    1.524546
     42          1           0       -2.812221   -4.266393    1.110389
     43          1           0       -4.760307   -4.296985   -0.671468
 ---------------------------------------------------------------------
                    Distance matrix (angstroms):
                    1          2          3          4          5
     1  C    0.000000
     2  C    1.502529   0.000000
     3  C    2.572791   1.398138   0.000000
     4  C    3.723235   2.269818   1.407676   0.000000
     5  C    5.055227   3.647172   2.549997   1.404235   0.000000
     6  C    6.142625   4.660949   3.787674   2.438375   1.398523
     7  C    7.499088   6.034684   5.067256   3.787472   2.539530
     8  C    8.302040   6.805602   6.035695   4.665227   3.634790
     9  C    9.789921   8.296821   7.490492   6.139084   5.031682
    10  C    7.622592   6.132231   5.627867   4.228018   3.588970
    11  C    8.407738   6.965384   6.686779   5.322962   4.901853
    12  C    8.316576   6.963887   6.942471   5.672647   5.561407
    13  C    9.530556   8.228553   8.286210   7.038048   6.930194
    14  C   10.488955   9.132557   9.050151   7.738417   7.425662
    15  C   11.833340  10.502295  10.451852   9.147974   8.822809
    16  O   12.731051  11.368186  11.219833   9.888664   9.433248
    17  S   10.048067   8.610482   8.285603   6.917148   6.348415
    18  N    6.241468   4.745738   4.251596   2.856540   2.436155
    19  B    5.223175   3.804976   3.764887   2.591078   2.971432
    20  F    5.652123   4.376127   4.595858   3.589750   4.045806
    21  F    5.700417   4.398745   4.503002   3.458644   3.864280
    22  N    3.748109   2.283654   2.271323   1.388240   2.431738
    23  C    2.625085   1.417037   2.262558   2.246573   3.582571
    24  C    3.224776   2.573106   3.680343   3.647805   4.909478
    25  C    4.479123   3.814222   4.792810   4.504101   5.605865
    26  C    5.226438   4.875281   6.008060   5.844507   6.978775
    27  C    4.821533   4.790423   6.066612   6.154339   7.396825
    28  S    3.282537   3.342825   4.655501   4.972461   6.289603
    29  H    1.096709   2.173478   3.202188   4.299307   5.599299
    30  H    1.094647   2.167954   3.379332   4.375903   5.748175
    31  H    1.094119   2.138564   2.697222   4.039747   5.238204
    32  H    2.928157   2.221360   1.082427   2.217079   2.945928
    33  H    5.419189   4.159365   2.850101   2.155990   1.083634
    34  H    7.963978   6.558865   5.434267   4.306644   2.927009
    35  H   10.203243   8.728494   7.980709   6.650327   5.609908
    36  H   10.140132   8.667011   7.718414   6.434208   5.184173
    37  H   10.369421   8.867015   8.131912   6.748455   5.710663
    38  H    7.534019   6.232245   6.327743   5.143448   5.240887
    39  H    9.847145   8.632458   8.836691   7.664488   7.701966
    40  H   12.132182  10.863056  10.936609   9.678978   9.480954
    41  H    5.073249   4.197799   4.935802   4.408145   5.331556
    42  H    6.257891   5.887860   6.972425   6.712048   7.767165
    43  H    5.552649   5.708077   7.022731   7.183057   8.436899
                    6          7          8          9         10
     6  C    0.000000
     7  C    1.413748   0.000000
     8  C    2.269076   1.386018   0.000000
     9  C    3.717295   2.551523   1.500601   0.000000
    10  C    2.252619   2.268500   1.432809   2.643667   0.000000
    11  C    3.632857   3.659707   2.565086   3.235245   1.430637
    12  C    4.472300   4.806609   3.868007   4.595409   2.568156
    13  C    5.799888   5.990133   4.888568   5.297138   3.740072
    14  C    6.166117   6.056747   4.783105   4.812804   3.937411
    15  C    7.544956   7.339608   6.014859   5.801725   5.302570
    16  O    8.105363   7.707063   6.338960   5.847444   5.873177
    17  S    5.001656   4.617784   3.274645   3.136008   2.793119
    18  N    1.386412   2.276244   2.294412   3.760379   1.402473
    19  B    2.584645   3.770387   3.824608   5.249834   2.679562
    20  F    3.577254   4.586294   4.378088   5.660733   3.104257
    21  F    3.462890   4.532486   4.452012   5.773272   3.245308
    22  N    2.840478   4.241121   4.743885   6.239095   3.903281
    23  C    4.206772   5.611007   6.123061   7.612991   5.219013
    24  C    5.305253   6.672072   6.953086   8.397607   5.838260
    25  C    5.731382   7.020917   7.075857   8.446945   5.809752
    26  C    7.083252   8.344424   8.307739   9.625808   6.984463
    27  C    7.669765   8.974247   9.049611  10.403842   7.789332
    28  S    6.794059   8.143442   8.442836   9.865034   7.345780
    29  H    6.641672   7.967334   8.731879  10.197699   8.041805
    30  H    6.743452   8.136721   8.850646  10.350538   8.052834
    31  H    6.467435   7.763435   8.702782  10.171915   8.168085
    32  H    4.318150   5.444482   6.566695   7.958803   6.358464
    33  H    2.148638   2.826647   4.130586   5.371619   4.396853
    34  H    2.220845   1.082255   2.208908   2.897889   3.321069
    35  H    4.314819   3.231320   2.170446   1.096347   3.077362
    36  H    4.016720   2.653396   2.132560   1.093634   3.494128
    37  H    4.359558   3.324960   2.168961   1.095227   2.953016
    38  H    4.350025   4.962300   4.278094   5.237219   2.899250
    39  H    6.659716   6.963549   5.917739   6.361397   4.713221
    40  H    8.259198   8.184171   6.899826   6.800516   6.050316
    41  H    5.288921   6.508666   6.477608   7.808317   5.190566
    42  H    7.743021   8.938835   8.771369  10.014478   7.394561
    43  H    8.715849  10.008542  10.055831  11.386140   8.782290
                   11         12         13         14         15
    11  C    0.000000
    12  C    1.406808   0.000000
    13  C    2.351093   1.394520   0.000000
    14  C    2.539220   2.339982   1.393608   0.000000
    15  C    3.937055   3.713811   2.529253   1.424407   0.000000
    16  O    4.633703   4.710462   3.672448   2.376757   1.245834
    17  S    1.773035   2.603053   2.595417   1.757005   2.786220
    18  N    2.509621   3.152921   4.504019   5.011007   6.420459
    19  B    3.211345   3.199634   4.525486   5.376041   6.774141
    20  F    3.192394   2.987243   4.073989   4.909206   6.213680
    21  F    3.445703   2.995056   4.256588   5.333776   6.703036
    22  N    4.689439   4.750984   6.064157   6.912305   8.304876
    23  C    5.851265   5.693991   6.908835   7.875050   9.223679
    24  C    6.147021   5.677692   6.709875   7.806583   9.067081
    25  C    5.831150   5.074467   5.956561   7.182105   8.376731
    26  C    6.817783   5.905433   6.543331   7.796054   8.848526
    27  C    7.735492   6.951711   7.610890   8.783279   9.823798
    28  S    7.595260   7.101316   7.989644   9.052712  10.217812
    29  H    8.785600   8.710934   9.868594  10.780963  12.085058
    30  H    8.713514   8.452060   9.611570  10.673137  11.995581
    31  H    9.072145   9.076510  10.342300  11.266866  12.638462
    32  H    7.520474   7.883071   9.243892   9.946649  11.351321
    33  H    5.779141   6.545547   7.901758   8.310758   9.687530
    34  H    4.675473   5.861378   7.011305   6.989683   8.217979
    35  H    3.436500   4.815371   5.344361   4.654368   5.502251
    36  H    4.269712   5.614460   6.363409   5.885467   6.831283
    37  H    3.169044   4.383822   4.917208   4.373507   5.272586
    38  H    2.180438   1.078735   2.186265   3.357467   4.673903
    39  H    3.376196   2.192258   1.085312   2.174013   2.847931
    40  H    4.632128   4.088940   2.728030   2.130069   1.106941
    41  H    5.152301   4.327698   5.250238   6.519765   7.743503
    42  H    7.040675   5.962354   6.409271   7.711225   8.656903
    43  H    8.660569   7.831376   8.377818   9.536447  10.491818
                   16         17         18         19         20
    16  O    0.000000
    17  S    3.116456   0.000000
    18  N    7.107482   4.097938   0.000000
    19  B    7.647060   4.919611   1.558298   0.000000
    20  F    7.106211   4.672674   2.429001   1.399900   0.000000
    21  F    7.697216   5.197642   2.427986   1.425664   2.302773
    22  N    9.153575   6.360812   2.538441   1.553389   2.426902
    23  C   10.142045   7.512494   3.894777   2.659819   3.099465
    24  C   10.079085   7.759799   4.673436   3.183122   3.155145
    25  C    9.475788   7.415177   4.837917   3.283274   3.138100
    26  C    9.985023   8.264289   6.123421   4.579580   4.142048
    27  C   10.910787   9.150798   6.839173   5.305673   4.780737
    28  S   11.216872   9.085632   6.221553   4.783545   4.439471
    29  H   12.955194  10.346092   6.704199   5.678289   5.875420
    30  H   12.964989  10.395575   6.687053   5.507772   5.907901
    31  H   13.505115  10.718437   6.770943   5.920017   6.500101
    32  H   12.067106   9.068486   5.030505   4.750284   5.613901
    33  H   10.220639   7.108808   3.405437   4.055050   5.101736
    34  H    8.484088   5.459442   3.315625   4.751338   5.599593
    35  H    5.392331   2.902163   4.251141   5.659477   5.822543
    36  H    6.800128   4.213961   4.395176   5.942619   6.487477
    37  H    5.312994   2.865785   4.194068   5.585615   6.001495
    38  H    5.733198   3.644109   3.005633   2.619342   2.577796
    39  H    4.088519   3.640688   5.321219   5.090021   4.567613
    40  H    2.042373   3.758175   7.048486   7.195457   6.568204
    41  H    8.861158   6.778208   4.310839   2.835459   2.936118
    42  H    9.838574   8.397137   6.677799   5.182219   4.704055
    43  H   11.578771   9.999103   7.873005   6.351045   5.733833
                   21         22         23         24         25
    21  F    0.000000
    22  N    2.423176   0.000000
    23  C    3.207386   1.393770   0.000000
    24  C    3.404398   2.515318   1.454439   0.000000
    25  C    3.011535   3.207655   2.574944   1.381938   0.000000
    26  C    4.290001   4.556977   3.771922   2.352715   1.423187
    27  C    5.298439   4.986399   3.943259   2.525953   2.331596
    28  S    5.127484   4.034441   2.801175   1.768764   2.578226
    29  H    6.310268   4.261273   3.110546   3.513826   4.835107
    30  H    5.740799   4.156802   2.891764   3.070768   4.131574
    31  H    6.387047   4.387661   3.468967   4.244254   5.457618
    32  H    5.481994   3.312355   3.314618   4.696029   5.836643
    33  H    4.900879   3.405336   4.399451   5.798464   6.585464
    34  H    5.509464   5.012386   6.333760   7.502457   7.948725
    35  H    6.317828   6.679786   8.008636   8.724603   8.791547
    36  H    6.489540   6.750367   8.136296   9.051011   9.198525
    37  H    5.859408   6.721859   8.086082   8.765044   8.649673
    38  H    2.078851   4.105307   4.929191   4.832573   4.137917
    39  H    4.622022   6.576518   7.260448   6.858467   5.927526
    40  H    6.977258   8.723276   9.527472   9.210762   8.387097
    41  H    2.160586   3.112271   2.904512   2.159470   1.080772
    42  H    4.677196   5.388586   4.741059   3.372271   2.215002
    43  H    6.344040   6.040835   4.965348   3.579675   3.380433
                   26         27         28         29         30
    26  C    0.000000
    27  C    1.368233   0.000000
    28  S    2.569797   1.735114   0.000000
    29  H    5.397423   4.747867   3.078175   0.000000
    30  H    4.714300   4.306806   3.010239   1.762021   0.000000
    31  H    6.255385   5.880417   4.366162   1.761541   1.768992
    32  H    7.021417   7.004371   5.514821   3.512124   3.825306
    33  H    7.952309   8.297065   7.077284   5.956740   6.202285
    34  H    9.294724   9.869744   8.930012   8.434833   8.673401
    35  H    9.889000  10.602517  10.076708  10.506535  10.797021
    36  H   10.436239  11.178688  10.525515  10.573882  10.758994
    37  H    9.792331  10.682774  10.298201  10.834236  10.841999
    38  H    5.025048   6.138507   6.327704   7.989496   7.580468
    39  H    6.315672   7.439942   8.050023  10.183275   9.814430
    40  H    8.706361   9.715418  10.293526  12.381728  12.202023
    41  H    2.216068   3.350843   3.623312   5.576005   4.772261
    42  H    1.084581   2.161905   3.617677   6.462725   5.684485
    43  H    2.212657   1.081898   2.461183   5.348063   4.984454
                   31         32         33         34         35
    31  H    0.000000
    32  H    2.638672   0.000000
    33  H    5.394989   2.834612   0.000000
    34  H    8.096747   5.607665   2.798168   0.000000
    35  H   10.638558   8.470577   5.968978   3.568412   0.000000
    36  H   10.414922   8.048805   5.305497   2.566824   1.763163
    37  H   10.782556   8.656243   6.121189   3.735315   1.762555
    38  H    8.305650   7.308038   6.273279   6.028817   5.585253
    39  H   10.706546   9.836466   8.710254   8.000223   6.425560
    40  H   12.983951  11.884085  10.399089   9.108444   6.559524
    41  H    5.955966   5.983575   6.344977   7.465366   8.230339
    42  H    7.263332   7.996973   8.772259   9.928660  10.275633
    43  H    6.586230   7.918629   9.321034  10.905260  11.537608
                   36         37         38         39         40
    36  H    0.000000
    37  H    1.768973   0.000000
    38  H    6.179432   5.084682   0.000000
    39  H    7.418153   5.935827   2.597467   0.000000
    40  H    7.840666   6.244463   4.899959   2.599822   0.000000
    41  H    8.569710   7.910792   3.311289   5.230415   7.763425
    42  H   10.876175  10.072466   5.093510   6.008039   8.385477
    43  H   12.182070  11.661099   7.054858   8.125275  10.311047
                   41         42         43
    41  H    0.000000
    42  H    2.625394   0.000000
    43  H    4.358299   2.640263   0.000000
 Stoichiometry    C20H15BF2N2OS2(1-,2)
 Framework group  C1[X(C20H15BF2N2OS2)]
 Deg. of freedom   123
 Full point group                 C1      NOp   1
 Largest Abelian subgroup         C1      NOp   1
 Largest concise Abelian subgroup C1      NOp   1
                         Standard orientation:                         
 ---------------------------------------------------------------------
 Center     Atomic      Atomic             Coordinates (Angstroms)
 Number     Number       Type             X           Y           Z
 ---------------------------------------------------------------------
      1          6           0       -5.605391    1.172591   -0.222600
      2          6           0       -4.117979    1.345922   -0.099491
      3          6           0       -3.455365    2.576517   -0.062496
      4          6           0       -2.077215    2.324309    0.074050
      5          6           0       -0.990221    3.213294    0.079152
      6          6           0        0.325459    2.739428    0.096581
      7          6           0        1.534454    3.458795   -0.043151
      8          6           0        2.580262    2.549689   -0.072436
      9          6           0        4.025333    2.930851   -0.207677
     10          6           0        2.010600    1.244608    0.086283
     11          6           0        2.710486    0.000393    0.180145
     12          6           0        2.300326   -1.220201    0.746737
     13          6           0        3.250554   -2.237108    0.659263
     14          6           0        4.432838   -1.858987    0.025723
     15          6           0        5.591648   -2.655439   -0.201781
     16          8           0        6.639525   -2.270962   -0.755164
     17         16           0        4.348430   -0.176985   -0.475088
     18          7           0        0.618983    1.387397    0.185997
     19          5           0       -0.484555    0.294625    0.313844
     20          9           0       -0.291139   -0.704941   -0.646977
     21          9           0       -0.409616   -0.285198    1.614116
     22          7           0       -1.881305    0.951489    0.138813
     23          6           0       -3.129071    0.339627    0.032509
     24          6           0       -3.336513   -1.099233    0.077709
     25          6           0       -2.701418   -2.072605    0.825342
     26          6           0       -3.190202   -3.389436    0.596197
     27          6           0       -4.200112   -3.438456   -0.325617
     28         16           0       -4.568221   -1.858042   -0.939951
     29          1           0       -5.913743    0.894432   -1.237645
     30          1           0       -5.989562    0.401008    0.452178
     31          1           0       -6.111020    2.112070    0.019919
     32          1           0       -3.908423    3.557145   -0.131451
     33          1           0       -1.170308    4.278824   -0.001331
     34          1           0        1.613323    4.534996   -0.125896
     35          1           0        4.447014    2.637483   -1.176231
     36          1           0        4.127255    4.016602   -0.125265
     37          1           0        4.651523    2.475395    0.566899
     38          1           0        1.348124   -1.330718    1.241476
     39          1           0        3.106312   -3.234300    1.062630
     40          1           0        5.499727   -3.697757    0.159388
     41          1           0       -1.912262   -1.835089    1.524546
     42          1           0       -2.812221   -4.266393    1.110389
     43          1           0       -4.760307   -4.296985   -0.671468
 ---------------------------------------------------------------------
 Rotational constants (GHZ):           0.2758439           0.0981900           0.0754920
 Leave Link  202 at Thu Nov  6 07:06:31 2025, MaxMem= 30870077440 cpu:               0.3 elap:               0.0
 (Enter /public/software/gauss/g16/l301.exe)
 Standard basis: def2TZVPP (5D, 7F)
 Ernie: Thresh=  0.10000D-02 Tol=  0.10000D-05 Strict=F.
 There are  1257 symmetry adapted cartesian basis functions of A   symmetry.
 There are  1100 symmetry adapted basis functions of A   symmetry.
  1100 basis functions,  1719 primitive gaussians,  1257 cartesian basis functions
   107 alpha electrons      106 beta electrons
       nuclear repulsion energy      2837.2898285745 Hartrees.
 IExCor= 4336 DFT=T Ex+Corr=M062X ExCW=0 ScaHFX=  0.540000
 ScaDFX=  1.000000  1.000000  1.000000  1.000000 ScalE2=  1.000000  1.000000
 IRadAn=      5 IRanWt=     -1 IRanGd=            0 ICorTp=0 IEmpDi=131
 NAtoms=   43 NActive=   43 NUniq=   43 SFac= 1.00D+00 NAtFMM=   60 NAOKFM=F Big=F
 Integral buffers will be    131072 words long.
 Raffenetti 2 integral format.
 Two-electron integral symmetry is turned on.
 R6Disp:  Grimme-D3 Dispersion energy=       -0.0031032771 Hartrees.
 Nuclear repulsion after empirical dispersion term =     2837.2867252974 Hartrees.
 ------------------------------------------------------------------------------
 Polarizable Continuum Model (PCM)
 =================================
 Model                : PCM.
 Atomic radii         : UFF (Universal Force Field).
 Polarization charges : Total charges.
 Charge compensation  : None.
 Solution method      : On-the-fly selection.
 Cavity type          : Scaled VdW (van der Waals Surface) (Alpha=1.100).
 Cavity algorithm     : GePol (No added spheres)
                        Default sphere list used, NSphG=   43.
                        Lebedev-Laikov grids with approx.  5.0 points / Ang**2.
                        Smoothing algorithm: York/Karplus (Gamma=1.0000).
                        Polarization charges: spherical gaussians, with
                                              point-specific exponents (IZeta= 3).
                        Self-potential: point-specific (ISelfS= 7).
                        Self-field    : sphere-specific E.n sum rule (ISelfD= 2).
 Solvent              : Water, Eps=  78.355300 Eps(inf)=   1.777849
 ------------------------------------------------------------------------------
 GePol: Number of generator spheres                  =      43
 GePol: Total number of spheres                      =      43
 GePol: Number of exposed spheres                    =      43 (100.00%)
 GePol: Number of points                             =    3468
 GePol: Average weight of points                     =       0.13
 GePol: Minimum weight of points                     =   0.41D-11
 GePol: Maximum weight of points                     =    0.20577
 GePol: Number of points with low weight             =     206
 GePol: Fraction of low-weight points (<1% of avg)   =       5.94%
 GePol: Cavity surface area                          =    437.838 Ang**2
 GePol: Cavity volume                                =    500.961 Ang**3
 Leave Link  301 at Thu Nov  6 07:06:31 2025, MaxMem= 30870077440 cpu:               3.7 elap:               0.1
 (Enter /public/software/gauss/g16/l302.exe)
 NPDir=0 NMtPBC=     1 NCelOv=     1 NCel=       1 NClECP=     1 NCelD=      1
         NCelK=      1 NCelE2=     1 NClLst=     1 CellRange=     0.0.
 One-electron integrals computed using PRISM.
 One-electron integral symmetry used in STVInt
   1 Symmetry operations used in ECPInt.
 ECPInt:  NShTT=   81810 NPrTT=  241852 LenC2=   64382 LenP2D=  132330.
 LDataN:  DoStor=T MaxTD1= 6 Len=  172
 NBasis=  1100 RedAO= T EigKep=  8.99D-06  NBF=  1100
 NBsUse=  1100 1.00D-06 EigRej= -1.00D+00 NBFU=  1100
 Precomputing XC quadrature grid using
 IXCGrd= 4 IRadAn=           5 IRanWt=          -1 IRanGd=           0 AccXCQ= 0.00D+00.
 Generated NRdTot=       0 NPtTot=           0 NUsed=           0 NTot=          32
 NSgBfM=  1207  1202  1202  1207  1207 MxSgAt=    43 MxSgA2=    43.
 Leave Link  302 at Thu Nov  6 07:06:33 2025, MaxMem= 30870077440 cpu:             176.4 elap:               2.8
 (Enter /public/software/gauss/g16/l303.exe)
 DipDrv:  MaxL=1.
 Leave Link  303 at Thu Nov  6 07:06:34 2025, MaxMem= 30870077440 cpu:              11.4 elap:               0.2
 (Enter /public/software/gauss/g16/l401.exe)
 ExpMin= 6.06D-02 ExpMax= 6.07D+04 ExpMxC= 2.07D+03 IAcc=3 IRadAn=         5 AccDes= 0.00D+00
 Harris functional with IExCor= 1009 and IRadAn=       5 diagonalized for initial guess.
 HarFok:  IExCor= 1009 AccDes= 0.00D+00 IRadAn=         5 IDoV= 1 UseB2=F ITyADJ=14
 ICtDFT=  3500011 ScaDFX=  1.000000  1.000000  1.000000  1.000000
 FoFCou: FMM=F IPFlag=           0 FMFlag=      100000 FMFlg1=           0
         NFxFlg=           0 DoJE=T BraDBF=F KetDBF=T FulRan=T
         wScrn=  0.000000 ICntrl=       500 IOpCl=  0 I1Cent=   200000004 NGrid=           0
         NMat0=    1 NMatS0=      1 NMatT0=    0 NMatD0=    1 NMtDS0=    0 NMtDT0=    0
 Petite list used in FoFCou.
 Harris En= -1976.22318757389    
 JPrj=0 DoOrth=F DoCkMO=F.
 Initial guess <Sx>= 0.0000 <Sy>= 0.0000 <Sz>= 0.5000 <S**2>= 0.7500 S= 0.5000
 Leave Link  401 at Thu Nov  6 07:06:38 2025, MaxMem= 30870077440 cpu:             300.5 elap:               4.7
 (Enter /public/software/gauss/g16/l502.exe)
 Integral symmetry usage will be decided dynamically.
 UHF open shell SCF:
 Using DIIS extrapolation, IDIIS=  1040.
 NGot= 30870077440 LenX= 30866826343 LenY= 30865245037
 Requested convergence on RMS density matrix=1.00D-08 within 128 cycles.
 Requested convergence on MAX density matrix=1.00D-06.
 Requested convergence on             energy=1.00D-06.
 No special actions if energy rises.
 Fock matrices will be formed incrementally for  20 cycles.

 Cycle   1  Pass 1  IDiag  1:
 FoFJK:  IHMeth= 1 ICntrl=       0 DoSepK=F KAlg= 0 I1Cent=           0 FoldK=F
 IRaf= 710000000 NMat=       1 IRICut=       1 DoRegI=T DoRafI=F ISym2E= 0 IDoP0=0 IntGTp=1.
 FoFCou: FMM=F IPFlag=           0 FMFlag=      100000 FMFlg1=           0
         NFxFlg=           0 DoJE=F BraDBF=F KetDBF=F FulRan=T
         wScrn=  0.000000 ICntrl=         0 IOpCl=  1 I1Cent=           0 NGrid=           0
         NMat0=    1 NMatS0=      1 NMatT0=    0 NMatD0=    1 NMtDS0=    0 NMtDT0=    0
 Symmetry not used in FoFCou.
 Inv3:  Mode=1 IEnd=    36081072.
 Iteration    1 A*A^-1 deviation from unit magnitude is 7.55D-15 for    650.
 Iteration    1 A*A^-1 deviation from orthogonality  is 5.14D-15 for   1680    662.
 Iteration    1 A^-1*A deviation from unit magnitude is 6.44D-15 for    650.
 Iteration    1 A^-1*A deviation from orthogonality  is 3.79D-15 for   1702    653.
 E= -1976.27241946583    
 DIIS: error= 1.49D-02 at cycle   1 NSaved=   1.
 NSaved= 1 IEnMin= 1 EnMin= -1976.27241946583     IErMin= 1 ErrMin= 1.49D-02
 ErrMax= 1.49D-02  0.00D+00 EMaxC= 1.00D-01 BMatC= 4.16D+00 BMatP= 4.16D+00
 IDIUse=3 WtCom= 8.51D-01 WtEn= 1.49D-01
 Coeff-Com:  0.100D+01
 Coeff-En:   0.100D+01
 Coeff:      0.100D+01
 Gap=     0.111 Goal=   None    Shift=    0.000
 Gap=     0.175 Goal=   None    Shift=    0.000
 GapD=    0.111 DampG=1.000 DampE=0.500 DampFc=0.5000 IDamp=-1.
 Damping current iteration by 5.00D-01
 RMSDP=2.24D-03 MaxDP=3.46D-01              OVMax= 2.42D-01

 Cycle   2  Pass 1  IDiag  1:
 RMSU=  1.12D-03    CP:  9.90D-01
 E= -1976.69043735872     Delta-E=       -0.418017892895 Rises=F Damp=T
 DIIS: error= 4.72D-03 at cycle   2 NSaved=   2.
 NSaved= 2 IEnMin= 2 EnMin= -1976.69043735872     IErMin= 2 ErrMin= 4.72D-03
 ErrMax= 4.72D-03  0.00D+00 EMaxC= 1.00D-01 BMatC= 3.20D-01 BMatP= 4.16D+00
 IDIUse=3 WtCom= 9.53D-01 WtEn= 4.72D-02
 Coeff-Com: -0.611D-01 0.106D+01
 Coeff-En:   0.000D+00 0.100D+01
 Coeff:     -0.582D-01 0.106D+01
 Gap=     0.125 Goal=   None    Shift=    0.000
 Gap=     0.143 Goal=   None    Shift=    0.000
 RMSDP=8.01D-04 MaxDP=9.58D-02 DE=-4.18D-01 OVMax= 1.99D-01

 Cycle   3  Pass 1  IDiag  1:
 RMSU=  7.88D-04    CP:  9.76D-01  8.89D-01
 E= -1977.10507119526     Delta-E=       -0.414633836536 Rises=F Damp=F
 DIIS: error= 2.60D-03 at cycle   3 NSaved=   3.
 NSaved= 3 IEnMin= 3 EnMin= -1977.10507119526     IErMin= 3 ErrMin= 2.60D-03
 ErrMax= 2.60D-03  0.00D+00 EMaxC= 1.00D-01 BMatC= 1.00D-01 BMatP= 3.20D-01
 IDIUse=3 WtCom= 9.74D-01 WtEn= 2.60D-02
 Coeff-Com: -0.820D-01 0.366D+00 0.716D+00
 Coeff-En:   0.000D+00 0.000D+00 0.100D+01
 Coeff:     -0.799D-01 0.357D+00 0.723D+00
 Gap=     0.128 Goal=   None    Shift=    0.000
 Gap=     0.145 Goal=   None    Shift=    0.000
 RMSDP=2.42D-04 MaxDP=3.36D-02 DE=-4.15D-01 OVMax= 5.32D-02

 Cycle   4  Pass 1  IDiag  1:
 RMSU=  2.19D-04    CP:  9.78D-01  9.78D-01  9.63D-01
 E= -1977.12349354181     Delta-E=       -0.018422346547 Rises=F Damp=F
 DIIS: error= 1.51D-03 at cycle   4 NSaved=   4.
 NSaved= 4 IEnMin= 4 EnMin= -1977.12349354181     IErMin= 4 ErrMin= 1.51D-03
 ErrMax= 1.51D-03  0.00D+00 EMaxC= 1.00D-01 BMatC= 2.63D-02 BMatP= 1.00D-01
 IDIUse=3 WtCom= 9.85D-01 WtEn= 1.51D-02
 Coeff-Com: -0.305D-01 0.779D-01 0.380D+00 0.573D+00
 Coeff-En:   0.000D+00 0.000D+00 0.136D+00 0.864D+00
 Coeff:     -0.300D-01 0.767D-01 0.376D+00 0.577D+00
 Gap=     0.127 Goal=   None    Shift=    0.000
 Gap=     0.146 Goal=   None    Shift=    0.000
 RMSDP=1.02D-04 MaxDP=1.78D-02 DE=-1.84D-02 OVMax= 1.70D-02

 Cycle   5  Pass 1  IDiag  1:
 RMSU=  8.04D-05    CP:  9.76D-01  9.54D-01  9.93D-01  7.69D-01
 E= -1977.12908663841     Delta-E=       -0.005593096605 Rises=F Damp=F
 DIIS: error= 3.62D-04 at cycle   5 NSaved=   5.
 NSaved= 5 IEnMin= 5 EnMin= -1977.12908663841     IErMin= 5 ErrMin= 3.62D-04
 ErrMax= 3.62D-04  0.00D+00 EMaxC= 1.00D-01 BMatC= 1.50D-03 BMatP= 2.63D-02
 IDIUse=3 WtCom= 9.96D-01 WtEn= 3.62D-03
 Coeff-Com: -0.759D-02 0.116D-01 0.135D+00 0.270D+00 0.592D+00
 Coeff-En:   0.000D+00 0.000D+00 0.000D+00 0.000D+00 0.100D+01
 Coeff:     -0.756D-02 0.116D-01 0.134D+00 0.269D+00 0.593D+00
 Gap=     0.128 Goal=   None    Shift=    0.000
 Gap=     0.148 Goal=   None    Shift=    0.000
 RMSDP=3.28D-05 MaxDP=3.42D-03 DE=-5.59D-03 OVMax= 8.60D-03

 Cycle   6  Pass 1  IDiag  1:
 RMSU=  3.02D-05    CP:  9.77D-01  9.59D-01  9.99D-01  8.13D-01  9.46D-01
 E= -1977.12953835319     Delta-E=       -0.000451714776 Rises=F Damp=F
 DIIS: error= 1.80D-04 at cycle   6 NSaved=   6.
 NSaved= 6 IEnMin= 6 EnMin= -1977.12953835319     IErMin= 6 ErrMin= 1.80D-04
 ErrMax= 1.80D-04  0.00D+00 EMaxC= 1.00D-01 BMatC= 1.91D-04 BMatP= 1.50D-03
 IDIUse=3 WtCom= 9.98D-01 WtEn= 1.80D-03
 Coeff-Com:  0.376D-02-0.119D-01-0.180D-01-0.102D-01 0.180D+00 0.857D+00
 Coeff-En:   0.000D+00 0.000D+00 0.000D+00 0.000D+00 0.000D+00 0.100D+01
 Coeff:      0.375D-02-0.119D-01-0.179D-01-0.102D-01 0.179D+00 0.857D+00
 Gap=     0.130 Goal=   None    Shift=    0.000
 Gap=     0.150 Goal=   None    Shift=    0.000
 RMSDP=2.40D-05 MaxDP=2.54D-03 DE=-4.52D-04 OVMax= 6.96D-03

 Cycle   7  Pass 1  IDiag  1:
 RMSU=  1.35D-05    CP:  9.77D-01  9.55D-01  1.01D+00  8.45D-01  1.12D+00
                    CP:  1.33D+00
 E= -1977.12969267492     Delta-E=       -0.000154321733 Rises=F Damp=F
 DIIS: error= 1.15D-04 at cycle   7 NSaved=   7.
 NSaved= 7 IEnMin= 7 EnMin= -1977.12969267492     IErMin= 7 ErrMin= 1.15D-04
 ErrMax= 1.15D-04  0.00D+00 EMaxC= 1.00D-01 BMatC= 5.45D-05 BMatP= 1.91D-04
 IDIUse=3 WtCom= 9.99D-01 WtEn= 1.15D-03
 Coeff-Com:  0.310D-02-0.685D-02-0.355D-01-0.671D-01-0.940D-01 0.293D+00
 Coeff-Com:  0.907D+00
 Coeff-En:   0.000D+00 0.000D+00 0.000D+00 0.000D+00 0.000D+00 0.000D+00
 Coeff-En:   0.100D+01
 Coeff:      0.309D-02-0.685D-02-0.354D-01-0.671D-01-0.938D-01 0.293D+00
 Coeff:      0.908D+00
 Gap=     0.131 Goal=   None    Shift=    0.000
 Gap=     0.151 Goal=   None    Shift=    0.000
 RMSDP=1.55D-05 MaxDP=2.03D-03 DE=-1.54D-04 OVMax= 6.29D-03

 Cycle   8  Pass 1  IDiag  1:
 RMSU=  6.75D-06    CP:  9.77D-01  9.56D-01  1.01D+00  8.66D-01  1.21D+00
                    CP:  1.65D+00  1.37D+00
 E= -1977.12975362663     Delta-E=       -0.000060951705 Rises=F Damp=F
 DIIS: error= 4.00D-05 at cycle   8 NSaved=   8.
 NSaved= 8 IEnMin= 8 EnMin= -1977.12975362663     IErMin= 8 ErrMin= 4.00D-05
 ErrMax= 4.00D-05  0.00D+00 EMaxC= 1.00D-01 BMatC= 1.32D-05 BMatP= 5.45D-05
 IDIUse=1 WtCom= 1.00D+00 WtEn= 0.00D+00
 Coeff-Com:  0.151D-03 0.514D-03-0.770D-02-0.207D-01-0.648D-01-0.106D+00
 Coeff-Com:  0.286D+00 0.912D+00
 Coeff:      0.151D-03 0.514D-03-0.770D-02-0.207D-01-0.648D-01-0.106D+00
 Coeff:      0.286D+00 0.912D+00
 Gap=     0.132 Goal=   None    Shift=    0.000
 Gap=     0.152 Goal=   None    Shift=    0.000
 RMSDP=7.92D-06 MaxDP=6.51D-04 DE=-6.10D-05 OVMax= 3.39D-03

 Cycle   9  Pass 1  IDiag  1:
 RMSU=  3.04D-06    CP:  9.77D-01  9.56D-01  1.01D+00  8.74D-01  1.25D+00
                    CP:  1.78D+00  1.67D+00  1.45D+00
 E= -1977.12977078406     Delta-E=       -0.000017157437 Rises=F Damp=F
 DIIS: error= 2.21D-05 at cycle   9 NSaved=   9.
 NSaved= 9 IEnMin= 9 EnMin= -1977.12977078406     IErMin= 9 ErrMin= 2.21D-05
 ErrMax= 2.21D-05  0.00D+00 EMaxC= 1.00D-01 BMatC= 3.97D-06 BMatP= 1.32D-05
 IDIUse=1 WtCom= 1.00D+00 WtEn= 0.00D+00
 Coeff-Com: -0.701D-03 0.184D-02 0.553D-02 0.863D-02 0.220D-02-0.111D+00
 Coeff-Com: -0.119D+00 0.326D+00 0.886D+00
 Coeff:     -0.701D-03 0.184D-02 0.553D-02 0.863D-02 0.220D-02-0.111D+00
 Coeff:     -0.119D+00 0.326D+00 0.886D+00
 Gap=     0.132 Goal=   None    Shift=    0.000
 Gap=     0.152 Goal=   None    Shift=    0.000
 RMSDP=4.14D-06 MaxDP=2.97D-04 DE=-1.72D-05 OVMax= 1.97D-03

 Cycle  10  Pass 1  IDiag  1:
 RMSU=  1.67D-06    CP:  9.77D-01  9.56D-01  1.01D+00  8.75D-01  1.26D+00
                    CP:  1.83D+00  1.82D+00  1.78D+00  1.50D+00
 E= -1977.12977607451     Delta-E=       -0.000005290446 Rises=F Damp=F
 DIIS: error= 1.60D-05 at cycle  10 NSaved=  10.
 NSaved=10 IEnMin=10 EnMin= -1977.12977607451     IErMin=10 ErrMin= 1.60D-05
 ErrMax= 1.60D-05  0.00D+00 EMaxC= 1.00D-01 BMatC= 1.35D-06 BMatP= 3.97D-06
 IDIUse=1 WtCom= 1.00D+00 WtEn= 0.00D+00
 Coeff-Com: -0.368D-03 0.736D-03 0.464D-02 0.101D-01 0.189D-01-0.220D-01
 Coeff-Com: -0.132D+00-0.106D+00 0.395D+00 0.831D+00
 Coeff:     -0.368D-03 0.736D-03 0.464D-02 0.101D-01 0.189D-01-0.220D-01
 Coeff:     -0.132D+00-0.106D+00 0.395D+00 0.831D+00
 Gap=     0.132 Goal=   None    Shift=    0.000
 Gap=     0.152 Goal=   None    Shift=    0.000
 RMSDP=2.41D-06 MaxDP=2.05D-04 DE=-5.29D-06 OVMax= 1.10D-03

 Cycle  11  Pass 1  IDiag  1:
 RMSU=  1.05D-06    CP:  9.77D-01  9.56D-01  1.01D+00  8.77D-01  1.26D+00
                    CP:  1.85D+00  1.86D+00  1.95D+00  1.97D+00  1.40D+00
 E= -1977.12977801408     Delta-E=       -0.000001939574 Rises=F Damp=F
 DIIS: error= 9.96D-06 at cycle  11 NSaved=  11.
 NSaved=11 IEnMin=11 EnMin= -1977.12977801408     IErMin=11 ErrMin= 9.96D-06
 ErrMax= 9.96D-06  0.00D+00 EMaxC= 1.00D-01 BMatC= 4.29D-07 BMatP= 1.35D-06
 IDIUse=1 WtCom= 1.00D+00 WtEn= 0.00D+00
 Coeff-Com:  0.637D-04-0.259D-03 0.734D-04 0.137D-02 0.637D-02 0.226D-01
 Coeff-Com: -0.168D-01-0.126D+00-0.112D+00 0.319D+00 0.905D+00
 Coeff:      0.637D-04-0.259D-03 0.734D-04 0.137D-02 0.637D-02 0.226D-01
 Coeff:     -0.168D-01-0.126D+00-0.112D+00 0.319D+00 0.905D+00
 Gap=     0.132 Goal=   None    Shift=    0.000
 Gap=     0.152 Goal=   None    Shift=    0.000
 RMSDP=1.51D-06 MaxDP=1.41D-04 DE=-1.94D-06 OVMax= 7.71D-04

 Cycle  12  Pass 1  IDiag  1:
 RMSU=  5.20D-07    CP:  9.77D-01  9.56D-01  1.01D+00  8.77D-01  1.26D+00
                    CP:  1.86D+00  1.88D+00  2.03D+00  2.24D+00  1.87D+00
                    CP:  1.51D+00
 E= -1977.12977880900     Delta-E=       -0.000000794919 Rises=F Damp=F
 DIIS: error= 6.45D-06 at cycle  12 NSaved=  12.
 NSaved=12 IEnMin=12 EnMin= -1977.12977880900     IErMin=12 ErrMin= 6.45D-06
 ErrMax= 6.45D-06  0.00D+00 EMaxC= 1.00D-01 BMatC= 1.48D-07 BMatP= 4.29D-07
 IDIUse=1 WtCom= 1.00D+00 WtEn= 0.00D+00
 Coeff-Com:  0.172D-03-0.383D-03-0.192D-02-0.376D-02-0.532D-02 0.158D-01
 Coeff-Com:  0.468D-01 0.743D-02-0.203D+00-0.219D+00 0.296D+00 0.107D+01
 Coeff:      0.172D-03-0.383D-03-0.192D-02-0.376D-02-0.532D-02 0.158D-01
 Coeff:      0.468D-01 0.743D-02-0.203D+00-0.219D+00 0.296D+00 0.107D+01
 Gap=     0.132 Goal=   None    Shift=    0.000
 Gap=     0.152 Goal=   None    Shift=    0.000
 RMSDP=1.28D-06 MaxDP=1.23D-04 DE=-7.95D-07 OVMax= 7.30D-04

 Cycle  13  Pass 1  IDiag  1:
 RMSU=  3.87D-07    CP:  9.77D-01  9.56D-01  1.01D+00  8.78D-01  1.26D+00
                    CP:  1.86D+00  1.88D+00  2.07D+00  2.44D+00  2.22D+00
                    CP:  2.15D+00  1.71D+00
 E= -1977.12977919553     Delta-E=       -0.000000386532 Rises=F Damp=F
 DIIS: error= 2.85D-06 at cycle  13 NSaved=  13.
 NSaved=13 IEnMin=13 EnMin= -1977.12977919553     IErMin=13 ErrMin= 2.85D-06
 ErrMax= 2.85D-06  0.00D+00 EMaxC= 1.00D-01 BMatC= 5.13D-08 BMatP= 1.48D-07
 IDIUse=1 WtCom= 1.00D+00 WtEn= 0.00D+00
 Coeff-Com:  0.379D-04-0.494D-04-0.611D-03-0.166D-02-0.381D-02-0.143D-02
 Coeff-Com:  0.231D-01 0.428D-01-0.481D-01-0.185D+00-0.163D+00 0.417D+00
 Coeff-Com:  0.921D+00
 Coeff:      0.379D-04-0.494D-04-0.611D-03-0.166D-02-0.381D-02-0.143D-02
 Coeff:      0.231D-01 0.428D-01-0.481D-01-0.185D+00-0.163D+00 0.417D+00
 Coeff:      0.921D+00
 Gap=     0.132 Goal=   None    Shift=    0.000
 Gap=     0.152 Goal=   None    Shift=    0.000
 RMSDP=7.05D-07 MaxDP=6.84D-05 DE=-3.87D-07 OVMax= 4.92D-04

 Cycle  14  Pass 1  IDiag  1:
 RMSU=  2.07D-07    CP:  9.77D-01  9.56D-01  1.01D+00  8.78D-01  1.26D+00
                    CP:  1.87D+00  1.89D+00  2.09D+00  2.53D+00  2.39D+00
                    CP:  2.47D+00  2.36D+00  1.57D+00
 E= -1977.12977931562     Delta-E=       -0.000000120091 Rises=F Damp=F
 DIIS: error= 2.08D-06 at cycle  14 NSaved=  14.
 NSaved=14 IEnMin=14 EnMin= -1977.12977931562     IErMin=14 ErrMin= 2.08D-06
 ErrMax= 2.08D-06  0.00D+00 EMaxC= 1.00D-01 BMatC= 1.88D-08 BMatP= 5.13D-08
 IDIUse=1 WtCom= 1.00D+00 WtEn= 0.00D+00
 Coeff-Com: -0.446D-04 0.114D-03 0.486D-03 0.689D-03-0.832D-04-0.722D-02
 Coeff-Com: -0.618D-02 0.176D-01 0.573D-01 0.147D-02-0.191D+00-0.239D+00
 Coeff-Com:  0.424D+00 0.942D+00
 Coeff:     -0.446D-04 0.114D-03 0.486D-03 0.689D-03-0.832D-04-0.722D-02
 Coeff:     -0.618D-02 0.176D-01 0.573D-01 0.147D-02-0.191D+00-0.239D+00
 Coeff:      0.424D+00 0.942D+00
 Gap=     0.132 Goal=   None    Shift=    0.000
 Gap=     0.152 Goal=   None    Shift=    0.000
 RMSDP=5.09D-07 MaxDP=6.17D-05 DE=-1.20D-07 OVMax= 3.57D-04

 Cycle  15  Pass 1  IDiag  1:
 RMSU=  1.18D-07    CP:  9.77D-01  9.57D-01  1.01D+00  8.78D-01  1.26D+00
                    CP:  1.87D+00  1.89D+00  2.10D+00  2.57D+00  2.45D+00
                    CP:  2.69D+00  2.79D+00  2.23D+00  1.69D+00
 E= -1977.12977935704     Delta-E=       -0.000000041417 Rises=F Damp=F
 DIIS: error= 8.90D-07 at cycle  15 NSaved=  15.
 NSaved=15 IEnMin=15 EnMin= -1977.12977935704     IErMin=15 ErrMin= 8.90D-07
 ErrMax= 8.90D-07  0.00D+00 EMaxC= 1.00D-01 BMatC= 5.04D-09 BMatP= 1.88D-08
 IDIUse=1 WtCom= 1.00D+00 WtEn= 0.00D+00
 Coeff-Com: -0.242D-04 0.518D-04 0.376D-03 0.777D-03 0.933D-03-0.270D-02
 Coeff-Com: -0.908D-02-0.620D-02 0.371D-01 0.599D-01-0.251D-01-0.230D+00
 Coeff-Com: -0.106D+00 0.408D+00 0.872D+00
 Coeff:     -0.242D-04 0.518D-04 0.376D-03 0.777D-03 0.933D-03-0.270D-02
 Coeff:     -0.908D-02-0.620D-02 0.371D-01 0.599D-01-0.251D-01-0.230D+00
 Coeff:     -0.106D+00 0.408D+00 0.872D+00
 Gap=     0.132 Goal=   None    Shift=    0.000
 Gap=     0.152 Goal=   None    Shift=    0.000
 RMSDP=2.55D-07 MaxDP=2.33D-05 DE=-4.14D-08 OVMax= 1.81D-04

 Cycle  16  Pass 1  IDiag  1:
 RMSU=  6.54D-08    CP:  9.77D-01  9.57D-01  1.01D+00  8.78D-01  1.26D+00
                    CP:  1.87D+00  1.89D+00  2.11D+00  2.58D+00  2.47D+00
                    CP:  2.76D+00  3.00D+00  2.58D+00  2.23D+00  1.46D+00
 E= -1977.12977936659     Delta-E=       -0.000000009547 Rises=F Damp=F
 DIIS: error= 7.38D-07 at cycle  16 NSaved=  16.
 NSaved=16 IEnMin=16 EnMin= -1977.12977936659     IErMin=16 ErrMin= 7.38D-07
 ErrMax= 7.38D-07  0.00D+00 EMaxC= 1.00D-01 BMatC= 1.10D-09 BMatP= 5.04D-09
 IDIUse=1 WtCom= 1.00D+00 WtEn= 0.00D+00
 Coeff-Com:  0.143D-05-0.667D-05 0.353D-04 0.154D-03 0.364D-03 0.409D-03
 Coeff-Com: -0.163D-02-0.518D-02 0.228D-03 0.201D-01 0.305D-01-0.316D-01
 Coeff-Com: -0.137D+00-0.428D-01 0.314D+00 0.853D+00
 Coeff:      0.143D-05-0.667D-05 0.353D-04 0.154D-03 0.364D-03 0.409D-03
 Coeff:     -0.163D-02-0.518D-02 0.228D-03 0.201D-01 0.305D-01-0.316D-01
 Coeff:     -0.137D+00-0.428D-01 0.314D+00 0.853D+00
 Gap=     0.132 Goal=   None    Shift=    0.000
 Gap=     0.152 Goal=   None    Shift=    0.000
 RMSDP=1.22D-07 MaxDP=1.15D-05 DE=-9.55D-09 OVMax= 8.95D-05

 Cycle  17  Pass 1  IDiag  1:
 RMSU=  4.99D-08    CP:  9.77D-01  9.57D-01  1.01D+00  8.79D-01  1.26D+00
                    CP:  1.87D+00  1.89D+00  2.11D+00  2.59D+00  2.48D+00
                    CP:  2.79D+00  3.00D+00  2.74D+00  2.49D+00  1.84D+00
                    CP:  1.49D+00
 E= -1977.12977936874     Delta-E=       -0.000000002155 Rises=F Damp=F
 DIIS: error= 3.56D-07 at cycle  17 NSaved=  17.
 NSaved=17 IEnMin=17 EnMin= -1977.12977936874     IErMin=17 ErrMin= 3.56D-07
 ErrMax= 3.56D-07  0.00D+00 EMaxC= 1.00D-01 BMatC= 3.71D-10 BMatP= 1.10D-09
 IDIUse=1 WtCom= 1.00D+00 WtEn= 0.00D+00
 Coeff-Com:  0.786D-05-0.178D-04-0.111D-03-0.185D-03-0.158D-03 0.884D-03
 Coeff-Com:  0.242D-02 0.412D-03-0.123D-01-0.120D-01 0.204D-01 0.629D-01
 Coeff-Com: -0.216D-01-0.137D+00-0.172D+00 0.316D+00 0.952D+00
 Coeff:      0.786D-05-0.178D-04-0.111D-03-0.185D-03-0.158D-03 0.884D-03
 Coeff:      0.242D-02 0.412D-03-0.123D-01-0.120D-01 0.204D-01 0.629D-01
 Coeff:     -0.216D-01-0.137D+00-0.172D+00 0.316D+00 0.952D+00
 Gap=     0.132 Goal=   None    Shift=    0.000
 Gap=     0.152 Goal=   None    Shift=    0.000
 RMSDP=7.97D-08 MaxDP=1.15D-05 DE=-2.15D-09 OVMax= 5.51D-05

 Cycle  18  Pass 1  IDiag  1:
 RMSU=  1.89D-08    CP:  9.77D-01  9.57D-01  1.01D+00  8.79D-01  1.26D+00
                    CP:  1.87D+00  1.89D+00  2.11D+00  2.60D+00  2.49D+00
                    CP:  2.81D+00  3.00D+00  2.82D+00  2.65D+00  2.09D+00
                    CP:  2.04D+00  1.54D+00
 E= -1977.12977936937     Delta-E=       -0.000000000630 Rises=F Damp=F
 DIIS: error= 1.86D-07 at cycle  18 NSaved=  18.
 NSaved=18 IEnMin=18 EnMin= -1977.12977936937     IErMin=18 ErrMin= 1.86D-07
 ErrMax= 1.86D-07  0.00D+00 EMaxC= 1.00D-01 BMatC= 9.87D-11 BMatP= 3.71D-10
 IDIUse=1 WtCom= 1.00D+00 WtEn= 0.00D+00
 Coeff-Com:  0.147D-05-0.261D-05-0.418D-04-0.886D-04-0.152D-03 0.941D-04
 Coeff-Com:  0.118D-02 0.166D-02-0.331D-02-0.897D-02-0.351D-02 0.232D-01
 Coeff-Com:  0.353D-01-0.177D-01-0.144D+00-0.183D+00 0.237D+00 0.106D+01
 Coeff:      0.147D-05-0.261D-05-0.418D-04-0.886D-04-0.152D-03 0.941D-04
 Coeff:      0.118D-02 0.166D-02-0.331D-02-0.897D-02-0.351D-02 0.232D-01
 Coeff:      0.353D-01-0.177D-01-0.144D+00-0.183D+00 0.237D+00 0.106D+01
 Gap=     0.132 Goal=   None    Shift=    0.000
 Gap=     0.152 Goal=   None    Shift=    0.000
 RMSDP=4.97D-08 MaxDP=6.91D-06 DE=-6.30D-10 OVMax= 3.42D-05

 Cycle  19  Pass 1  IDiag  1:
 RMSU=  9.47D-09    CP:  9.77D-01  9.57D-01  1.01D+00  8.79D-01  1.26D+00
                    CP:  1.87D+00  1.89D+00  2.11D+00  2.60D+00  2.49D+00
                    CP:  2.83D+00  3.00D+00  2.86D+00  2.73D+00  2.23D+00
                    CP:  2.39D+00  1.95D+00  1.63D+00
 E= -1977.12977936993     Delta-E=       -0.000000000558 Rises=F Damp=F
 DIIS: error= 7.44D-08 at cycle  19 NSaved=  19.
 NSaved=19 IEnMin=19 EnMin= -1977.12977936993     IErMin=19 ErrMin= 7.44D-08
 ErrMax= 7.44D-08  0.00D+00 EMaxC= 1.00D-01 BMatC= 3.21D-11 BMatP= 9.87D-11
 IDIUse=1 WtCom= 1.00D+00 WtEn= 0.00D+00
 Coeff-Com: -0.192D-05 0.456D-05 0.169D-04 0.214D-04-0.246D-04-0.230D-03
 Coeff-Com: -0.208D-03 0.628D-03 0.224D-02-0.459D-03-0.783D-02-0.977D-02
 Coeff-Com:  0.249D-01 0.344D-01-0.124D-01-0.185D+00-0.202D+00 0.472D+00
 Coeff-Com:  0.884D+00
 Coeff:     -0.192D-05 0.456D-05 0.169D-04 0.214D-04-0.246D-04-0.230D-03
 Coeff:     -0.208D-03 0.628D-03 0.224D-02-0.459D-03-0.783D-02-0.977D-02
 Coeff:      0.249D-01 0.344D-01-0.124D-01-0.185D+00-0.202D+00 0.472D+00
 Coeff:      0.884D+00
 Gap=     0.132 Goal=   None    Shift=    0.000
 Gap=     0.152 Goal=   None    Shift=    0.000
 RMSDP=2.59D-08 MaxDP=3.53D-06 DE=-5.58D-10 OVMax= 1.63D-05

 Cycle  20  Pass 1  IDiag  1:
 RMSU=  4.52D-09    CP:  9.77D-01  9.57D-01  1.01D+00  8.79D-01  1.26D+00
                    CP:  1.87D+00  1.89D+00  2.11D+00  2.60D+00  2.50D+00
                    CP:  2.83D+00  3.00D+00  2.88D+00  2.76D+00  2.28D+00
                    CP:  2.55D+00  2.15D+00  2.13D+00  1.42D+00
 E= -1977.12977937003     Delta-E=       -0.000000000095 Rises=F Damp=F
 DIIS: error= 2.85D-08 at cycle  20 NSaved=  20.
 NSaved=20 IEnMin=20 EnMin= -1977.12977937003     IErMin=20 ErrMin= 2.85D-08
 ErrMax= 2.85D-08  0.00D+00 EMaxC= 1.00D-01 BMatC= 5.80D-12 BMatP= 3.21D-11
 IDIUse=1 WtCom= 1.00D+00 WtEn= 0.00D+00
 Coeff-Com: -0.101D-05 0.234D-05 0.133D-04 0.224D-04 0.111D-04-0.107D-03
 Coeff-Com: -0.275D-03 0.175D-04 0.142D-02 0.115D-02-0.247D-02-0.777D-02
 Coeff-Com:  0.510D-02 0.155D-01 0.174D-01-0.436D-01-0.112D+00 0.231D-01
 Coeff-Com:  0.335D+00 0.768D+00
 Coeff:     -0.101D-05 0.234D-05 0.133D-04 0.224D-04 0.111D-04-0.107D-03
 Coeff:     -0.275D-03 0.175D-04 0.142D-02 0.115D-02-0.247D-02-0.777D-02
 Coeff:      0.510D-02 0.155D-01 0.174D-01-0.436D-01-0.112D+00 0.231D-01
 Coeff:      0.335D+00 0.768D+00
 Gap=     0.132 Goal=   None    Shift=    0.000
 Gap=     0.152 Goal=   None    Shift=    0.000
 RMSDP=5.11D-09 MaxDP=3.94D-07 DE=-9.46D-11 OVMax= 2.92D-06

 Error on total polarization charges =  0.02349
 SCF Done:  E(UM062X) =  -1977.12977937     A.U. after   20 cycles
            NFock= 20  Conv=0.51D-08     -V/T= 2.0037
 <Sx>= 0.0000 <Sy>= 0.0000 <Sz>= 0.5000 <S**2>= 0.7966 S= 0.5230
 <L.S>= 0.000000000000E+00
 KE= 1.969817712944D+03 PE=-1.035212062954D+04 EE= 3.567886411930D+03
 Annihilation of the first spin contaminant:
 S**2 before annihilation     0.7966,   after     0.7515
 Leave Link  502 at Thu Nov  6 07:20:37 2025, MaxMem= 30870077440 cpu:           53134.6 elap:             838.3
 (Enter /public/software/gauss/g16/l601.exe)
 Copying SCF densities to generalized density rwf, IOpCl= 1 IROHF=0.

 **********************************************************************

            Population analysis using the SCF density.

 **********************************************************************

 Orbital symmetries:
 Alpha Orbitals:
       Occupied  (A) (A) (A) (A) (A) (A) (A) (A) (A) (A) (A) (A)
                 (A) (A) (A) (A) (A) (A) (A) (A) (A) (A) (A) (A)
                 (A) (A) (A) (A) (A) (A) (A) (A) (A) (A) (A) (A)
                 (A) (A) (A) (A) (A) (A) (A) (A) (A) (A) (A) (A)
                 (A) (A) (A) (A) (A) (A) (A) (A) (A) (A) (A) (A)
                 (A) (A) (A) (A) (A) (A) (A) (A) (A) (A) (A) (A)
                 (A) (A) (A) (A) (A) (A) (A) (A) (A) (A) (A) (A)
                 (A) (A) (A) (A) (A) (A) (A) (A) (A) (A) (A) (A)
                 (A) (A) (A) (A) (A) (A) (A) (A) (A) (A) (A)
       Virtual   (A) (A) (A) (A) (A) (A) (A) (A) (A) (A) (A) (A)
                 (A) (A) (A) (A) (A) (A) (A) (A) (A) (A) (A) (A)
                 (A) (A) (A) (A) (A) (A) (A) (A) (A) (A) (A) (A)
                 (A) (A) (A) (A) (A) (A) (A) (A) (A) (A) (A) (A)
                 (A) (A) (A) (A) (A) (A) (A) (A) (A) (A) (A) (A)
                 (A) (A) (A) (A) (A) (A) (A) (A) (A) (A) (A) (A)
                 (A) (A) (A) (A) (A) (A) (A) (A) (A) (A) (A) (A)
                 (A) (A) (A) (A) (A) (A) (A) (A) (A) (A) (A) (A)
                 (A) (A) (A) (A) (A) (A) (A) (A) (A) (A) (A) (A)
                 (A) (A) (A) (A) (A) (A) (A) (A) (A) (A) (A) (A)
                 (A) (A) (A) (A) (A) (A) (A) (A) (A) (A) (A) (A)
                 (A) (A) (A) (A) (A) (A) (A) (A) (A) (A) (A) (A)
                 (A) (A) (A) (A) (A) (A) (A) (A) (A) (A) (A) (A)
                 (A) (A) (A) (A) (A) (A) (A) (A) (A) (A) (A) (A)
                 (A) (A) (A) (A) (A) (A) (A) (A) (A) (A) (A) (A)
                 (A) (A) (A) (A) (A) (A) (A) (A) (A) (A) (A) (A)
                 (A) (A) (A) (A) (A) (A) (A) (A) (A) (A) (A) (A)
                 (A) (A) (A) (A) (A) (A) (A) (A) (A) (A) (A) (A)
                 (A) (A) (A) (A) (A) (A) (A) (A) (A) (A) (A) (A)
                 (A) (A) (A) (A) (A) (A) (A) (A) (A) (A) (A) (A)
                 (A) (A) (A) (A) (A) (A) (A) (A) (A) (A) (A) (A)
                 (A) (A) (A) (A) (A) (A) (A) (A) (A) (A) (A) (A)
                 (A) (A) (A) (A) (A) (A) (A) (A) (A) (A) (A) (A)
                 (A) (A) (A) (A) (A) (A) (A) (A) (A) (A) (A) (A)
                 (A) (A) (A) (A) (A) (A) (A) (A) (A) (A) (A) (A)
                 (A) (A) (A) (A) (A) (A) (A) (A) (A) (A) (A) (A)
                 (A) (A) (A) (A) (A) (A) (A) (A) (A) (A) (A) (A)
                 (A) (A) (A) (A) (A) (A) (A) (A) (A) (A) (A) (A)
                 (A) (A) (A) (A) (A) (A) (A) (A) (A) (A) (A) (A)
                 (A) (A) (A) (A) (A) (A) (A) (A) (A) (A) (A) (A)
                 (A) (A) (A) (A) (A) (A) (A) (A) (A) (A) (A) (A)
                 (A) (A) (A) (A) (A) (A) (A) (A) (A) (A) (A) (A)
                 (A) (A) (A) (A) (A) (A) (A) (A) (A) (A) (A) (A)
                 (A) (A) (A) (A) (A) (A) (A) (A) (A) (A) (A) (A)
                 (A) (A) (A) (A) (A) (A) (A) (A) (A) (A) (A) (A)
                 (A) (A) (A) (A) (A) (A) (A) (A) (A) (A) (A) (A)
                 (A) (A) (A) (A) (A) (A) (A) (A) (A) (A) (A) (A)
                 (A) (A) (A) (A) (A) (A) (A) (A) (A) (A) (A) (A)
                 (A) (A) (A) (A) (A) (A) (A) (A) (A) (A) (A) (A)
                 (A) (A) (A) (A) (A) (A) (A) (A) (A) (A) (A) (A)
                 (A) (A) (A) (A) (A) (A) (A) (A) (A) (A) (A) (A)
                 (A) (A) (A) (A) (A) (A) (A) (A) (A) (A) (A) (A)
                 (A) (A) (A) (A) (A) (A) (A) (A) (A) (A) (A) (A)
                 (A) (A) (A) (A) (A) (A) (A) (A) (A) (A) (A) (A)
                 (A) (A) (A) (A) (A) (A) (A) (A) (A) (A) (A) (A)
                 (A) (A) (A) (A) (A) (A) (A) (A) (A) (A) (A) (A)
                 (A) (A) (A) (A) (A) (A) (A) (A) (A) (A) (A) (A)
                 (A) (A) (A) (A) (A) (A) (A) (A) (A) (A) (A) (A)
                 (A) (A) (A) (A) (A) (A) (A) (A) (A) (A) (A) (A)
                 (A) (A) (A) (A) (A) (A) (A) (A) (A) (A) (A) (A)
                 (A) (A) (A) (A) (A) (A) (A) (A) (A) (A) (A) (A)
                 (A) (A) (A) (A) (A) (A) (A) (A) (A) (A) (A) (A)
                 (A) (A) (A) (A) (A) (A) (A) (A) (A) (A) (A) (A)
                 (A) (A) (A) (A) (A) (A) (A) (A) (A) (A) (A) (A)
                 (A) (A) (A) (A) (A) (A) (A) (A) (A) (A) (A) (A)
                 (A) (A) (A) (A) (A) (A) (A) (A) (A) (A) (A) (A)
                 (A) (A) (A) (A) (A) (A) (A) (A) (A) (A) (A) (A)
                 (A) (A) (A) (A) (A) (A) (A) (A) (A) (A) (A) (A)
                 (A) (A) (A) (A) (A) (A) (A) (A) (A) (A) (A) (A)
                 (A) (A) (A) (A) (A) (A) (A) (A) (A) (A) (A) (A)
                 (A) (A) (A) (A) (A) (A) (A) (A) (A) (A) (A) (A)
                 (A) (A) (A) (A) (A) (A) (A) (A) (A) (A) (A) (A)
                 (A) (A) (A) (A) (A) (A) (A) (A) (A) (A) (A) (A)
                 (A) (A) (A) (A) (A) (A) (A) (A) (A) (A) (A) (A)
                 (A) (A) (A) (A) (A) (A) (A) (A) (A) (A) (A) (A)
                 (A) (A) (A) (A) (A) (A) (A) (A) (A) (A) (A) (A)
                 (A) (A) (A) (A) (A) (A) (A) (A) (A) (A) (A) (A)
                 (A) (A) (A) (A) (A) (A) (A) (A) (A) (A) (A) (A)
                 (A) (A) (A) (A) (A) (A) (A) (A) (A) (A) (A) (A)
                 (A) (A) (A) (A) (A) (A) (A) (A) (A) (A) (A) (A)
                 (A) (A) (A) (A) (A) (A) (A) (A) (A) (A) (A) (A)
                 (A) (A) (A) (A) (A) (A) (A) (A) (A) (A) (A) (A)
                 (A) (A) (A) (A) (A) (A) (A) (A) (A) (A) (A) (A)
                 (A) (A) (A) (A) (A) (A) (A) (A) (A) (A) (A) (A)
                 (A) (A) (A) (A) (A) (A) (A) (A) (A) (A) (A) (A)
                 (A) (A) (A) (A) (A) (A) (A) (A) (A) (A) (A) (A)
                 (A) (A) (A) (A) (A) (A) (A) (A) (A) (A) (A) (A)
                 (A) (A) (A) (A) (A) (A) (A) (A) (A) (A) (A) (A)
                 (A) (A) (A) (A) (A) (A) (A) (A) (A) (A) (A) (A)
                 (A) (A) (A) (A) (A) (A) (A) (A) (A) (A) (A) (A)
                 (A) (A) (A) (A) (A) (A) (A) (A) (A) (A) (A) (A)
                 (A) (A) (A) (A) (A) (A) (A) (A) (A) (A) (A) (A)
                 (A) (A) (A) (A) (A) (A) (A) (A) (A)
 Beta  Orbitals:
       Occupied  (A) (A) (A) (A) (A) (A) (A) (A) (A) (A) (A) (A)
                 (A) (A) (A) (A) (A) (A) (A) (A) (A) (A) (A) (A)
                 (A) (A) (A) (A) (A) (A) (A) (A) (A) (A) (A) (A)
                 (A) (A) (A) (A) (A) (A) (A) (A) (A) (A) (A) (A)
                 (A) (A) (A) (A) (A) (A) (A) (A) (A) (A) (A) (A)
                 (A) (A) (A) (A) (A) (A) (A) (A) (A) (A) (A) (A)
                 (A) (A) (A) (A) (A) (A) (A) (A) (A) (A) (A) (A)
                 (A) (A) (A) (A) (A) (A) (A) (A) (A) (A) (A) (A)
                 (A) (A) (A) (A) (A) (A) (A) (A) (A) (A)
       Virtual   (A) (A) (A) (A) (A) (A) (A) (A) (A) (A) (A) (A)
                 (A) (A) (A) (A) (A) (A) (A) (A) (A) (A) (A) (A)
                 (A) (A) (A) (A) (A) (A) (A) (A) (A) (A) (A) (A)
                 (A) (A) (A) (A) (A) (A) (A) (A) (A) (A) (A) (A)
                 (A) (A) (A) (A) (A) (A) (A) (A) (A) (A) (A) (A)
                 (A) (A) (A) (A) (A) (A) (A) (A) (A) (A) (A) (A)
                 (A) (A) (A) (A) (A) (A) (A) (A) (A) (A) (A) (A)
                 (A) (A) (A) (A) (A) (A) (A) (A) (A) (A) (A) (A)
                 (A) (A) (A) (A) (A) (A) (A) (A) (A) (A) (A) (A)
                 (A) (A) (A) (A) (A) (A) (A) (A) (A) (A) (A) (A)
                 (A) (A) (A) (A) (A) (A) (A) (A) (A) (A) (A) (A)
                 (A) (A) (A) (A) (A) (A) (A) (A) (A) (A) (A) (A)
                 (A) (A) (A) (A) (A) (A) (A) (A) (A) (A) (A) (A)
                 (A) (A) (A) (A) (A) (A) (A) (A) (A) (A) (A) (A)
                 (A) (A) (A) (A) (A) (A) (A) (A) (A) (A) (A) (A)
                 (A) (A) (A) (A) (A) (A) (A) (A) (A) (A) (A) (A)
                 (A) (A) (A) (A) (A) (A) (A) (A) (A) (A) (A) (A)
                 (A) (A) (A) (A) (A) (A) (A) (A) (A) (A) (A) (A)
                 (A) (A) (A) (A) (A) (A) (A) (A) (A) (A) (A) (A)
                 (A) (A) (A) (A) (A) (A) (A) (A) (A) (A) (A) (A)
                 (A) (A) (A) (A) (A) (A) (A) (A) (A) (A) (A) (A)
                 (A) (A) (A) (A) (A) (A) (A) (A) (A) (A) (A) (A)
                 (A) (A) (A) (A) (A) (A) (A) (A) (A) (A) (A) (A)
                 (A) (A) (A) (A) (A) (A) (A) (A) (A) (A) (A) (A)
                 (A) (A) (A) (A) (A) (A) (A) (A) (A) (A) (A) (A)
                 (A) (A) (A) (A) (A) (A) (A) (A) (A) (A) (A) (A)
                 (A) (A) (A) (A) (A) (A) (A) (A) (A) (A) (A) (A)
                 (A) (A) (A) (A) (A) (A) (A) (A) (A) (A) (A) (A)
                 (A) (A) (A) (A) (A) (A) (A) (A) (A) (A) (A) (A)
                 (A) (A) (A) (A) (A) (A) (A) (A) (A) (A) (A) (A)
                 (A) (A) (A) (A) (A) (A) (A) (A) (A) (A) (A) (A)
                 (A) (A) (A) (A) (A) (A) (A) (A) (A) (A) (A) (A)
                 (A) (A) (A) (A) (A) (A) (A) (A) (A) (A) (A) (A)
                 (A) (A) (A) (A) (A) (A) (A) (A) (A) (A) (A) (A)
                 (A) (A) (A) (A) (A) (A) (A) (A) (A) (A) (A) (A)
                 (A) (A) (A) (A) (A) (A) (A) (A) (A) (A) (A) (A)
                 (A) (A) (A) (A) (A) (A) (A) (A) (A) (A) (A) (A)
                 (A) (A) (A) (A) (A) (A) (A) (A) (A) (A) (A) (A)
                 (A) (A) (A) (A) (A) (A) (A) (A) (A) (A) (A) (A)
                 (A) (A) (A) (A) (A) (A) (A) (A) (A) (A) (A) (A)
                 (A) (A) (A) (A) (A) (A) (A) (A) (A) (A) (A) (A)
                 (A) (A) (A) (A) (A) (A) (A) (A) (A) (A) (A) (A)
                 (A) (A) (A) (A) (A) (A) (A) (A) (A) (A) (A) (A)
                 (A) (A) (A) (A) (A) (A) (A) (A) (A) (A) (A) (A)
                 (A) (A) (A) (A) (A) (A) (A) (A) (A) (A) (A) (A)
                 (A) (A) (A) (A) (A) (A) (A) (A) (A) (A) (A) (A)
                 (A) (A) (A) (A) (A) (A) (A) (A) (A) (A) (A) (A)
                 (A) (A) (A) (A) (A) (A) (A) (A) (A) (A) (A) (A)
                 (A) (A) (A) (A) (A) (A) (A) (A) (A) (A) (A) (A)
                 (A) (A) (A) (A) (A) (A) (A) (A) (A) (A) (A) (A)
                 (A) (A) (A) (A) (A) (A) (A) (A) (A) (A) (A) (A)
                 (A) (A) (A) (A) (A) (A) (A) (A) (A) (A) (A) (A)
                 (A) (A) (A) (A) (A) (A) (A) (A) (A) (A) (A) (A)
                 (A) (A) (A) (A) (A) (A) (A) (A) (A) (A) (A) (A)
                 (A) (A) (A) (A) (A) (A) (A) (A) (A) (A) (A) (A)
                 (A) (A) (A) (A) (A) (A) (A) (A) (A) (A) (A) (A)
                 (A) (A) (A) (A) (A) (A) (A) (A) (A) (A) (A) (A)
                 (A) (A) (A) (A) (A) (A) (A) (A) (A) (A) (A) (A)
                 (A) (A) (A) (A) (A) (A) (A) (A) (A) (A) (A) (A)
                 (A) (A) (A) (A) (A) (A) (A) (A) (A) (A) (A) (A)
                 (A) (A) (A) (A) (A) (A) (A) (A) (A) (A) (A) (A)
                 (A) (A) (A) (A) (A) (A) (A) (A) (A) (A) (A) (A)
                 (A) (A) (A) (A) (A) (A) (A) (A) (A) (A) (A) (A)
                 (A) (A) (A) (A) (A) (A) (A) (A) (A) (A) (A) (A)
                 (A) (A) (A) (A) (A) (A) (A) (A) (A) (A) (A) (A)
                 (A) (A) (A) (A) (A) (A) (A) (A) (A) (A) (A) (A)
                 (A) (A) (A) (A) (A) (A) (A) (A) (A) (A) (A) (A)
                 (A) (A) (A) (A) (A) (A) (A) (A) (A) (A) (A) (A)
                 (A) (A) (A) (A) (A) (A) (A) (A) (A) (A) (A) (A)
                 (A) (A) (A) (A) (A) (A) (A) (A) (A) (A) (A) (A)
                 (A) (A) (A) (A) (A) (A) (A) (A) (A) (A) (A) (A)
                 (A) (A) (A) (A) (A) (A) (A) (A) (A) (A) (A) (A)
                 (A) (A) (A) (A) (A) (A) (A) (A) (A) (A) (A) (A)
                 (A) (A) (A) (A) (A) (A) (A) (A) (A) (A) (A) (A)
                 (A) (A) (A) (A) (A) (A) (A) (A) (A) (A) (A) (A)
                 (A) (A) (A) (A) (A) (A) (A) (A) (A) (A) (A) (A)
                 (A) (A) (A) (A) (A) (A) (A) (A) (A) (A) (A) (A)
                 (A) (A) (A) (A) (A) (A) (A) (A) (A) (A) (A) (A)
                 (A) (A) (A) (A) (A) (A) (A) (A) (A) (A) (A) (A)
                 (A) (A) (A) (A) (A) (A) (A) (A) (A) (A) (A) (A)
                 (A) (A) (A) (A) (A) (A) (A) (A) (A) (A) (A) (A)
                 (A) (A) (A) (A) (A) (A) (A) (A) (A) (A) (A) (A)
                 (A) (A) (A) (A) (A) (A) (A) (A) (A) (A)
 The electronic state is 2-A.
 Alpha  occ. eigenvalues --  -89.93271 -89.92839 -25.19257 -25.19139 -19.61444
 Alpha  occ. eigenvalues --  -14.76462 -14.76237 -10.62615 -10.59478 -10.58130
 Alpha  occ. eigenvalues --  -10.57853 -10.57697 -10.57088 -10.56776 -10.56644
 Alpha  occ. eigenvalues --  -10.56523 -10.56065 -10.54780 -10.54352 -10.54171
 Alpha  occ. eigenvalues --  -10.54135 -10.53843 -10.53827 -10.53446 -10.53083
 Alpha  occ. eigenvalues --  -10.52845 -10.52463  -8.28971  -8.28568  -7.11865
 Alpha  occ. eigenvalues --   -6.20880  -6.20701  -6.20603  -6.20476  -6.20296
 Alpha  occ. eigenvalues --   -6.20170  -1.30997  -1.27881  -1.14752  -1.08031
 Alpha  occ. eigenvalues --   -1.06157  -0.98196  -0.97474  -0.90524  -0.88717
 Alpha  occ. eigenvalues --   -0.88300  -0.86391  -0.83677  -0.83000  -0.81893
 Alpha  occ. eigenvalues --   -0.80257  -0.79617  -0.77130  -0.74726  -0.71017
 Alpha  occ. eigenvalues --   -0.67070  -0.66609  -0.65092  -0.64006  -0.62904
 Alpha  occ. eigenvalues --   -0.62310  -0.61337  -0.60137  -0.58800  -0.58704
 Alpha  occ. eigenvalues --   -0.57763  -0.56975  -0.55034  -0.53651  -0.52673
 Alpha  occ. eigenvalues --   -0.51451  -0.51296  -0.51002  -0.50647  -0.49280
 Alpha  occ. eigenvalues --   -0.48940  -0.48634  -0.48290  -0.48047  -0.47209
 Alpha  occ. eigenvalues --   -0.47061  -0.46626  -0.45957  -0.45526  -0.45277
 Alpha  occ. eigenvalues --   -0.45032  -0.44605  -0.43820  -0.43597  -0.43438
 Alpha  occ. eigenvalues --   -0.42808  -0.42787  -0.41982  -0.41716  -0.40040
 Alpha  occ. eigenvalues --   -0.39383  -0.38911  -0.36072  -0.33659  -0.32244
 Alpha  occ. eigenvalues --   -0.31586  -0.30983  -0.30578  -0.29727  -0.29081
 Alpha  occ. eigenvalues --   -0.23802  -0.17896
 Alpha virt. eigenvalues --   -0.04713   0.00291   0.03706   0.05764   0.05930
 Alpha virt. eigenvalues --    0.06561   0.07547   0.08134   0.08288   0.08883
 Alpha virt. eigenvalues --    0.09393   0.09978   0.10369   0.10432   0.10727
 Alpha virt. eigenvalues --    0.11327   0.11669   0.11885   0.12239   0.12912
 Alpha virt. eigenvalues --    0.13395   0.13597   0.13721   0.14054   0.14617
 Alpha virt. eigenvalues --    0.14745   0.15380   0.15911   0.16700   0.16995
 Alpha virt. eigenvalues --    0.17443   0.17912   0.18378   0.18885   0.19812
 Alpha virt. eigenvalues --    0.20086   0.20592   0.21534   0.21900   0.22159
 Alpha virt. eigenvalues --    0.22775   0.23147   0.23177   0.23674   0.23942
 Alpha virt. eigenvalues --    0.24320   0.24526   0.24992   0.25208   0.26002
 Alpha virt. eigenvalues --    0.26264   0.26615   0.26870   0.27114   0.27956
 Alpha virt. eigenvalues --    0.28269   0.28747   0.29238   0.29305   0.29651
 Alpha virt. eigenvalues --    0.30366   0.30915   0.31075   0.31426   0.31826
 Alpha virt. eigenvalues --    0.31967   0.32497   0.32957   0.33034   0.33474
 Alpha virt. eigenvalues --    0.33685   0.33845   0.34517   0.35169   0.35520
 Alpha virt. eigenvalues --    0.36088   0.36311   0.36738   0.36832   0.37294
 Alpha virt. eigenvalues --    0.37578   0.38071   0.38254   0.38567   0.39198
 Alpha virt. eigenvalues --    0.39695   0.39945   0.40075   0.40538   0.41173
 Alpha virt. eigenvalues --    0.41299   0.41615   0.42019   0.42176   0.42426
 Alpha virt. eigenvalues --    0.42780   0.43100   0.43404   0.43793   0.44183
 Alpha virt. eigenvalues --    0.44390   0.44676   0.44980   0.45504   0.45940
 Alpha virt. eigenvalues --    0.46144   0.46613   0.46667   0.47405   0.47975
 Alpha virt. eigenvalues --    0.48264   0.48713   0.48976   0.49465   0.49661
 Alpha virt. eigenvalues --    0.50491   0.50535   0.50704   0.51005   0.51223
 Alpha virt. eigenvalues --    0.51503   0.51630   0.51836   0.52483   0.52711
 Alpha virt. eigenvalues --    0.53379   0.53997   0.54096   0.54621   0.55489
 Alpha virt. eigenvalues --    0.55617   0.56018   0.56746   0.57113   0.57451
 Alpha virt. eigenvalues --    0.57861   0.58410   0.58719   0.59080   0.59416
 Alpha virt. eigenvalues --    0.60033   0.60599   0.61580   0.61813   0.62237
 Alpha virt. eigenvalues --    0.62969   0.63410   0.64037   0.64103   0.64906
 Alpha virt. eigenvalues --    0.65177   0.65987   0.66120   0.66368   0.67372
 Alpha virt. eigenvalues --    0.67470   0.68155   0.68496   0.68865   0.69119
 Alpha virt. eigenvalues --    0.69328   0.69775   0.70056   0.70376   0.71001
 Alpha virt. eigenvalues --    0.71695   0.71885   0.72393   0.72861   0.73310
 Alpha virt. eigenvalues --    0.73396   0.73715   0.74280   0.75069   0.75629
 Alpha virt. eigenvalues --    0.75984   0.76125   0.76524   0.77338   0.77924
 Alpha virt. eigenvalues --    0.78389   0.79409   0.79874   0.80426   0.80488
 Alpha virt. eigenvalues --    0.80924   0.81640   0.82212   0.82747   0.83424
 Alpha virt. eigenvalues --    0.83653   0.84688   0.84912   0.85337   0.86043
 Alpha virt. eigenvalues --    0.86890   0.87366   0.87671   0.88277   0.88889
 Alpha virt. eigenvalues --    0.89434   0.90046   0.91216   0.91246   0.91701
 Alpha virt. eigenvalues --    0.92105   0.92621   0.92968   0.94009   0.94098
 Alpha virt. eigenvalues --    0.94446   0.94964   0.95663   0.95706   0.96330
 Alpha virt. eigenvalues --    0.96664   0.97010   0.97240   0.97808   0.98054
 Alpha virt. eigenvalues --    0.98264   0.98438   0.99297   0.99508   0.99980
 Alpha virt. eigenvalues --    1.00193   1.00665   1.01369   1.01893   1.02628
 Alpha virt. eigenvalues --    1.03107   1.03605   1.04228   1.04914   1.04965
 Alpha virt. eigenvalues --    1.05575   1.06341   1.07157   1.07334   1.07797
 Alpha virt. eigenvalues --    1.08514   1.08868   1.09278   1.09817   1.10103
 Alpha virt. eigenvalues --    1.11061   1.11085   1.12046   1.12558   1.13084
 Alpha virt. eigenvalues --    1.13601   1.14436   1.15044   1.15378   1.15817
 Alpha virt. eigenvalues --    1.16333   1.16547   1.17116   1.17495   1.18499
 Alpha virt. eigenvalues --    1.19041   1.19282   1.19833   1.20305   1.21412
 Alpha virt. eigenvalues --    1.22084   1.22736   1.23225   1.23426   1.23720
 Alpha virt. eigenvalues --    1.24298   1.24953   1.25769   1.26034   1.27126
 Alpha virt. eigenvalues --    1.27751   1.28307   1.29419   1.29651   1.30255
 Alpha virt. eigenvalues --    1.30847   1.31301   1.31822   1.32540   1.32746
 Alpha virt. eigenvalues --    1.33269   1.33521   1.34682   1.35044   1.35170
 Alpha virt. eigenvalues --    1.35960   1.36517   1.37404   1.38035   1.38621
 Alpha virt. eigenvalues --    1.39039   1.39753   1.40269   1.40485   1.40939
 Alpha virt. eigenvalues --    1.41559   1.42561   1.42914   1.43822   1.44261
 Alpha virt. eigenvalues --    1.44845   1.45504   1.45718   1.46735   1.47000
 Alpha virt. eigenvalues --    1.47232   1.47616   1.47702   1.48354   1.49208
 Alpha virt. eigenvalues --    1.49539   1.49949   1.50681   1.51124   1.51314
 Alpha virt. eigenvalues --    1.51615   1.52490   1.52833   1.53307   1.53634
 Alpha virt. eigenvalues --    1.54128   1.54769   1.55026   1.56010   1.56111
 Alpha virt. eigenvalues --    1.56793   1.57434   1.57832   1.58476   1.59002
 Alpha virt. eigenvalues --    1.59268   1.59841   1.60076   1.60684   1.60732
 Alpha virt. eigenvalues --    1.61025   1.61433   1.61868   1.62705   1.63044
 Alpha virt. eigenvalues --    1.63474   1.63714   1.63971   1.64447   1.64575
 Alpha virt. eigenvalues --    1.66344   1.66894   1.67173   1.67272   1.68156
 Alpha virt. eigenvalues --    1.69004   1.69612   1.69929   1.70569   1.71305
 Alpha virt. eigenvalues --    1.72110   1.72302   1.73056   1.73866   1.74587
 Alpha virt. eigenvalues --    1.76016   1.76593   1.77771   1.78578   1.79757
 Alpha virt. eigenvalues --    1.80102   1.80260   1.81938   1.82436   1.82554
 Alpha virt. eigenvalues --    1.83740   1.84177   1.84601   1.84919   1.85335
 Alpha virt. eigenvalues --    1.85482   1.85924   1.86955   1.87313   1.87633
 Alpha virt. eigenvalues --    1.88373   1.88523   1.89097   1.89891   1.90241
 Alpha virt. eigenvalues --    1.91244   1.92151   1.92587   1.92921   1.93509
 Alpha virt. eigenvalues --    1.93810   1.94520   1.95223   1.96606   1.97259
 Alpha virt. eigenvalues --    1.97920   1.98551   1.99321   1.99849   2.00788
 Alpha virt. eigenvalues --    2.01446   2.02946   2.03417   2.04554   2.05606
 Alpha virt. eigenvalues --    2.06059   2.06978   2.08325   2.09920   2.10428
 Alpha virt. eigenvalues --    2.10683   2.11809   2.12010   2.12536   2.13185
 Alpha virt. eigenvalues --    2.13369   2.13798   2.14510   2.15329   2.15474
 Alpha virt. eigenvalues --    2.16181   2.16614   2.17425   2.18116   2.18562
 Alpha virt. eigenvalues --    2.19587   2.20378   2.21075   2.21926   2.22327
 Alpha virt. eigenvalues --    2.23348   2.23932   2.24799   2.24936   2.25896
 Alpha virt. eigenvalues --    2.27512   2.27993   2.28439   2.30542   2.31350
 Alpha virt. eigenvalues --    2.32167   2.32860   2.34580   2.34962   2.36105
 Alpha virt. eigenvalues --    2.36893   2.37203   2.38043   2.38551   2.39723
[...]
    35  H(1)              -0.00183      -8.18741      -2.92147      -2.73103
    36  H(1)              -0.00013      -0.58803      -0.20982      -0.19615
    37  H(1)              -0.00142      -6.33626      -2.26093      -2.11355
    38  H(1)              -0.00107      -4.79140      -1.70969      -1.59824
    39  H(1)               0.00053       2.36049       0.84228       0.78738
    40  H(1)              -0.00062      -2.76703      -0.98734      -0.92298
    41  H(1)              -0.00087      -3.87172      -1.38153      -1.29147
    42  H(1)               0.00025       1.10463       0.39416       0.36846
    43  H(1)              -0.00047      -2.10525      -0.75121      -0.70224
 --------------------------------------------------------
       Center         ----  Spin Dipole Couplings  ----
                      3XX-RR        3YY-RR        3ZZ-RR
 --------------------------------------------------------
     1   Atom        0.002203     -0.000316     -0.001887
     2   Atom        0.022230      0.020933     -0.043164
     3   Atom       -0.083872     -0.089077      0.172950
     4   Atom        0.040763      0.039104     -0.079867
     5   Atom       -0.225693     -0.216796      0.442489
     6   Atom        0.059925      0.049957     -0.109882
     7   Atom       -0.064585     -0.065925      0.130509
     8   Atom        0.041221      0.041229     -0.082450
     9   Atom        0.001719      0.001155     -0.002874
    10   Atom       -0.082537     -0.082223      0.164759
    11   Atom        0.009546      0.020056     -0.029601
    12   Atom       -0.014708     -0.020299      0.035007
    13   Atom        0.013008      0.012437     -0.025445
    14   Atom       -0.025454     -0.035304      0.060757
    15   Atom       -0.004231     -0.008384      0.012615
    16   Atom       -0.079187     -0.096060      0.175247
    17   Atom       -0.006433     -0.133180      0.139613
    18   Atom       -0.097726     -0.086612      0.184338
    19   Atom        0.001342      0.000479     -0.001820
    20   Atom       -0.005509      0.010948     -0.005438
    21   Atom       -0.016828      0.025331     -0.008502
    22   Atom       -0.047679     -0.040366      0.088045
    23   Atom       -0.102200     -0.103450      0.205650
    24   Atom       -0.004969      0.021028     -0.016060
    25   Atom        0.018310     -0.019303      0.000993
    26   Atom       -0.003410      0.007503     -0.004093
    27   Atom        0.004204     -0.021405      0.017201
    28   Atom        0.067061     -0.042112     -0.024949
    29   Atom        0.001614     -0.000499     -0.001115
    30   Atom        0.002256     -0.000940     -0.001316
    31   Atom        0.002119     -0.000849     -0.001270
    32   Atom       -0.004694      0.007184     -0.002489
    33   Atom       -0.026574      0.029233     -0.002659
    34   Atom       -0.006799      0.008972     -0.002173
    35   Atom        0.000522      0.000631     -0.001154
    36   Atom        0.001479     -0.000472     -0.001007
    37   Atom        0.000647      0.000529     -0.001176
    38   Atom        0.003893     -0.003136     -0.000757
    39   Atom        0.002234     -0.000815     -0.001419
    40   Atom       -0.001970      0.003370     -0.001400
    41   Atom        0.001823     -0.001885      0.000062
    42   Atom       -0.000197      0.000614     -0.000418
    43   Atom       -0.000671      0.001348     -0.000677
 --------------------------------------------------------
                        XY            XZ            YZ
 --------------------------------------------------------
     1   Atom       -0.000033      0.000532     -0.000196
     2   Atom       -0.000735      0.005326     -0.000835
     3   Atom       -0.002057     -0.031357      0.003758
     4   Atom        0.006992      0.010001     -0.005742
     5   Atom       -0.003035     -0.012800      0.036874
     6   Atom       -0.008358     -0.005197     -0.015476
     7   Atom        0.001843      0.019859      0.015145
     8   Atom       -0.001033     -0.010678     -0.002779
     9   Atom        0.000129     -0.000370     -0.000293
    10   Atom       -0.001049      0.016026      0.022833
    11   Atom       -0.008641     -0.015387     -0.009377
    12   Atom        0.015268      0.037538      0.034172
    13   Atom       -0.008800     -0.018138     -0.014724
    14   Atom        0.008847      0.044326      0.029557
    15   Atom        0.002115      0.004924      0.009258
    16   Atom        0.035253      0.128894      0.092469
    17   Atom        0.050701      0.182800      0.088177
    18   Atom       -0.002025      0.005108      0.018448
    19   Atom        0.000876     -0.000222     -0.000910
    20   Atom       -0.001659     -0.000962      0.005821
    21   Atom        0.000045     -0.000200     -0.017803
    22   Atom       -0.002853     -0.009513     -0.001890
    23   Atom       -0.002306     -0.031479      0.011906
    24   Atom        0.003657      0.022051     -0.006061
    25   Atom       -0.018628     -0.037768      0.014597
    26   Atom        0.002297      0.010824     -0.000983
    27   Atom        0.000015     -0.033189      0.000734
    28   Atom        0.031809     -0.037687     -0.006717
    29   Atom        0.000063      0.000920      0.000018
    30   Atom        0.000295     -0.000276      0.000141
    31   Atom        0.000173      0.000079      0.000055
    32   Atom       -0.010510     -0.000367     -0.001075
    33   Atom       -0.010315      0.000193     -0.002108
    34   Atom        0.002631      0.000431     -0.000770
    35   Atom        0.000402     -0.000147     -0.000605
    36   Atom        0.000236     -0.000175      0.000034
    37   Atom        0.000628     -0.000129      0.000513
    38   Atom        0.000081     -0.002143      0.000518
    39   Atom       -0.001525     -0.000988      0.000456
    40   Atom       -0.001353      0.000600     -0.000934
    41   Atom        0.000478      0.002240      0.000506
    42   Atom        0.000610      0.000558      0.000067
    43   Atom        0.002831     -0.000101      0.002124
 --------------------------------------------------------


 ---------------------------------------------------------------------------------
              Anisotropic Spin Dipole Couplings in Principal Axis System
 ---------------------------------------------------------------------------------

       Atom             a.u.   MegaHertz   Gauss  10(-4) cm-1        Axes

              Baa    -0.0020    -0.265    -0.095    -0.088 -0.1246  0.1141  0.9856
     1 C(13)  Bbb    -0.0003    -0.040    -0.014    -0.013  0.0366  0.9932 -0.1104
              Bcc     0.0023     0.305     0.109     0.102  0.9915 -0.0223  0.1279
 
              Baa    -0.0436    -5.851    -2.088    -1.952 -0.0805  0.0120  0.9967
     2 C(13)  Bbb     0.0206     2.768     0.988     0.923  0.3659  0.9305  0.0184
              Bcc     0.0230     3.083     1.100     1.028  0.9272 -0.3662  0.0793
 
              Baa    -0.0902   -12.097    -4.317    -4.035  0.5344  0.8437  0.0516
     3 C(13)  Bbb    -0.0866   -11.625    -4.148    -3.878  0.8367 -0.5367  0.1088
              Bcc     0.1768    23.722     8.465     7.913 -0.1195  0.0150  0.9927
 
              Baa    -0.0810   -10.872    -3.880    -3.627 -0.0847  0.0525  0.9950
     4 C(13)  Bbb     0.0339     4.554     1.625     1.519 -0.6410  0.7617 -0.0948
              Bcc     0.0471     6.319     2.255     2.108  0.7628  0.6459  0.0309
 
              Baa    -0.2266   -30.412   -10.852   -10.144  0.9582  0.2860  0.0026
     5 C(13)  Bbb    -0.2182   -29.275   -10.446    -9.765 -0.2854  0.9566 -0.0589
              Bcc     0.4448    59.687    21.298    19.910 -0.0193  0.0557  0.9983
 
              Baa    -0.1116   -14.972    -5.342    -4.994  0.0349  0.0971  0.9947
     6 C(13)  Bbb     0.0468     6.286     2.243     2.097  0.5067  0.8561 -0.1013
              Bcc     0.0647     8.687     3.100     2.898  0.8614 -0.5075  0.0193
 
              Baa    -0.0672    -9.023    -3.220    -3.010 -0.4371  0.8990 -0.0250
     7 C(13)  Bbb    -0.0664    -8.915    -3.181    -2.974  0.8938  0.4312 -0.1233
              Bcc     0.1337    17.938     6.401     5.983  0.1001  0.0762  0.9921
 
              Baa    -0.0834   -11.196    -3.995    -3.734  0.0855  0.0229  0.9961
     8 C(13)  Bbb     0.0408     5.477     1.954     1.827  0.5114  0.8570 -0.0636
              Bcc     0.0426     5.718     2.040     1.907  0.8551 -0.5148 -0.0616
 
              Baa    -0.0029    -0.392    -0.140    -0.131  0.0774  0.0691  0.9946
     9 C(13)  Bbb     0.0011     0.153     0.054     0.051 -0.2452  0.9683 -0.0482
              Bcc     0.0018     0.240     0.086     0.080  0.9664  0.2401 -0.0919
 
              Baa    -0.0865   -11.602    -4.140    -3.870  0.6495  0.7523 -0.1098
    10 C(13)  Bbb    -0.0814   -10.923    -3.897    -3.643  0.7577 -0.6525  0.0112
              Bcc     0.1679    22.525     8.037     7.513  0.0632  0.0905  0.9939
 
              Baa    -0.0373    -5.009    -1.787    -1.671  0.3388  0.2012  0.9191
    11 C(13)  Bbb     0.0124     1.664     0.594     0.555  0.8108  0.4331 -0.3937
              Bcc     0.0249     3.345     1.193     1.116 -0.4772  0.8786 -0.0164
 
              Baa    -0.0378    -5.073    -1.810    -1.692  0.4409  0.7035 -0.5574
    12 C(13)  Bbb    -0.0327    -4.390    -1.567    -1.464  0.7884 -0.6003 -0.1341
              Bcc     0.0705     9.464     3.377     3.157  0.4290  0.3804  0.8193
 
              Baa    -0.0383    -5.141    -1.835    -1.715  0.3639  0.3172  0.8758
    13 C(13)  Bbb     0.0163     2.193     0.783     0.732  0.4170  0.7852 -0.4577
              Bcc     0.0220     2.948     1.052     0.983  0.8329 -0.5318 -0.1535
 
              Baa    -0.0469    -6.292    -2.245    -2.099  0.6492  0.6218 -0.4381
    14 C(13)  Bbb    -0.0403    -5.405    -1.929    -1.803 -0.6636  0.7445  0.0733
              Bcc     0.0872    11.697     4.174     3.902  0.3717  0.2431  0.8960
 
              Baa    -0.0119    -1.596    -0.569    -0.532 -0.0358  0.9372 -0.3469
    15 C(13)  Bbb    -0.0055    -0.744    -0.266    -0.248  0.9701 -0.0507 -0.2372
              Bcc     0.0174     2.340     0.835     0.780  0.2399  0.3450  0.9074
 
              Baa    -0.1340     9.694     3.459     3.234  0.8556  0.2745 -0.4388
    16 O(17)  Bbb    -0.1229     8.892     3.173     2.966 -0.3625  0.9229 -0.1295
              Bcc     0.2569   -18.586    -6.632    -6.200  0.3694  0.2699  0.8892
 
              Baa    -0.1594    -6.536    -2.332    -2.180  0.0732  0.9436 -0.3230
    17 S(33)  Bbb    -0.1285    -5.266    -1.879    -1.757  0.8374 -0.2341 -0.4940
              Bcc     0.2879    11.803     4.212     3.937  0.5417  0.2343  0.8072
 
              Baa    -0.0983    -3.793    -1.353    -1.265  0.9753  0.2184 -0.0319
    18 N(14)  Bbb    -0.0873    -3.368    -1.202    -1.123 -0.2200  0.9735 -0.0620
              Bcc     0.1857     7.161     2.555     2.389  0.0175  0.0675  0.9976
 
              Baa    -0.0021    -0.366    -0.131    -0.122 -0.0244  0.3354  0.9417
    19 B(11)  Bbb     0.0001     0.022     0.008     0.007 -0.5951  0.7521 -0.2833
              Bcc     0.0020     0.344     0.123     0.115  0.8033  0.5673 -0.1813
 
              Baa    -0.0074    -3.714    -1.325    -1.239  0.2343 -0.2747  0.9325
    20 F(19)  Bbb    -0.0056    -2.812    -1.003    -0.938  0.9669  0.1653 -0.1943
              Bcc     0.0130     6.526     2.329     2.177 -0.1008  0.9472  0.3044
 
              Baa    -0.0169    -8.471    -3.023    -2.826  0.9747  0.0861  0.2065
    21 F(19)  Bbb    -0.0161    -8.089    -2.886    -2.698 -0.2237  0.3850  0.8954
              Bcc     0.0330    16.560     5.909     5.524  0.0024  0.9189 -0.3944
 
              Baa    -0.0493    -1.903    -0.679    -0.635  0.9462  0.3158  0.0699
    22 N(14)  Bbb    -0.0394    -1.519    -0.542    -0.507 -0.3159  0.9487 -0.0095
              Bcc     0.0887     3.422     1.221     1.141 -0.0693 -0.0131  0.9975
 
              Baa    -0.1060   -14.220    -5.074    -4.743  0.8798  0.4701  0.0709
    23 C(13)  Bbb    -0.1033   -13.866    -4.948    -4.625 -0.4646  0.8818 -0.0813
              Bcc     0.2093    28.086    10.022     9.369 -0.1008  0.0386  0.9942
 
              Baa    -0.0341    -4.582    -1.635    -1.528 -0.6081  0.1264  0.7837
    24 C(13)  Bbb     0.0122     1.631     0.582     0.544  0.7938  0.0842  0.6023
              Bcc     0.0220     2.952     1.053     0.985  0.0101  0.9884 -0.1515
 
              Baa    -0.0291    -3.906    -1.394    -1.303  0.6388  0.0736  0.7658
    25 C(13)  Bbb    -0.0267    -3.588    -1.280    -1.197  0.1863  0.9510 -0.2468
              Bcc     0.0559     7.495     2.674     2.500  0.7464 -0.3004 -0.5938
 
              Baa    -0.0148    -1.989    -0.710    -0.663 -0.6954  0.1029  0.7112
    26 C(13)  Bbb     0.0064     0.858     0.306     0.286  0.5407 -0.5770  0.6122
              Bcc     0.0084     1.131     0.403     0.377  0.4733  0.8103  0.3456
 
              Baa    -0.0232    -3.119    -1.113    -1.040  0.7457 -0.2525  0.6166
    27 C(13)  Bbb    -0.0213    -2.856    -1.019    -0.953  0.2002  0.9676  0.1542
              Bcc     0.0445     5.975     2.132     1.993 -0.6355  0.0085  0.7721
 
              Baa    -0.0514    -2.109    -0.753    -0.704 -0.3167  0.9235 -0.2163
    28 S(33)  Bbb    -0.0370    -1.518    -0.542    -0.507  0.2426  0.2993  0.9228
              Bcc     0.0885     3.628     1.294     1.210  0.9170  0.2398 -0.3189
 
              Baa    -0.0014    -0.745    -0.266    -0.248 -0.2921  0.0009  0.9564
    29 H(1)   Bbb    -0.0005    -0.267    -0.095    -0.089 -0.0258  0.9996 -0.0088
              Bcc     0.0019     1.012     0.361     0.338  0.9560  0.0272  0.2920
 
              Baa    -0.0014    -0.746    -0.266    -0.249  0.0985 -0.3491  0.9319
    30 H(1)   Bbb    -0.0009    -0.482    -0.172    -0.161 -0.0561  0.9330  0.3554
              Bcc     0.0023     1.228     0.438     0.410  0.9936  0.0873 -0.0723
 
              Baa    -0.0013    -0.682    -0.243    -0.228 -0.0170 -0.1206  0.9926
    31 H(1)   Bbb    -0.0009    -0.455    -0.162    -0.152 -0.0609  0.9910  0.1194
              Bcc     0.0021     1.137     0.406     0.379  0.9980  0.0584  0.0241
 
              Baa    -0.0109    -5.824    -2.078    -1.943  0.8577  0.5041  0.1017
    32 H(1)   Bbb    -0.0024    -1.300    -0.464    -0.434 -0.1115 -0.0107  0.9937
              Bcc     0.0134     7.124     2.542     2.376 -0.5020  0.8636 -0.0470
 
              Baa    -0.0284   -15.164    -5.411    -5.058  0.9843  0.1764  0.0071
    33 H(1)   Bbb    -0.0028    -1.488    -0.531    -0.496 -0.0179  0.0599  0.9980
              Bcc     0.0312    16.652     5.942     5.555 -0.1756  0.9825 -0.0622
 
              Baa    -0.0073    -3.887    -1.387    -1.297  0.9806 -0.1638 -0.1073
    34 H(1)   Bbb    -0.0022    -1.150    -0.410    -0.384  0.1155  0.0414  0.9924
              Bcc     0.0094     5.037     1.797     1.680  0.1581  0.9856 -0.0595
 
              Baa    -0.0013    -0.715    -0.255    -0.238  0.0129  0.2911  0.9566
    35 H(1)   Bbb     0.0002     0.116     0.041     0.039  0.8143 -0.5583  0.1589
              Bcc     0.0011     0.599     0.214     0.200  0.5803  0.7769 -0.2442
 
              Baa    -0.0010    -0.546    -0.195    -0.182  0.0785 -0.0950  0.9924
    36 H(1)   Bbb    -0.0005    -0.264    -0.094    -0.088 -0.1089  0.9887  0.1033
              Bcc     0.0015     0.810     0.289     0.270  0.9909  0.1162 -0.0673
 
              Baa    -0.0014    -0.728    -0.260    -0.243  0.1557 -0.3062  0.9391
    37 H(1)   Bbb     0.0001     0.063     0.023     0.021  0.6893 -0.6473 -0.3253
              Bcc     0.0012     0.665     0.237     0.222  0.7076  0.6980  0.1103
 
              Baa    -0.0033    -1.756    -0.627    -0.586 -0.0924  0.9574 -0.2736
    38 H(1)   Bbb    -0.0014    -0.768    -0.274    -0.256  0.3533  0.2884  0.8899
              Bcc     0.0047     2.524     0.901     0.842  0.9309 -0.0145 -0.3649
 
              Baa    -0.0017    -0.900    -0.321    -0.300  0.1447 -0.2485  0.9578
    39 H(1)   Bbb    -0.0014    -0.768    -0.274    -0.256  0.4163  0.8934  0.1689
              Bcc     0.0031     1.668     0.595     0.556  0.8977 -0.3742 -0.2327
 
              Baa    -0.0024    -1.306    -0.466    -0.436  0.9094  0.1491 -0.3883
    40 H(1)   Bbb    -0.0015    -0.776    -0.277    -0.259  0.3403  0.2699  0.9007
              Bcc     0.0039     2.082     0.743     0.694 -0.2391  0.9513 -0.1947
 
              Baa    -0.0020    -1.073    -0.383    -0.358  0.0462  0.9578 -0.2836
    41 H(1)   Bbb    -0.0014    -0.760    -0.271    -0.254 -0.5741  0.2578  0.7772
              Bcc     0.0034     1.833     0.654     0.612  0.8175  0.1269  0.5618
 
              Baa    -0.0010    -0.512    -0.183    -0.171  0.6906 -0.2387 -0.6827
    42 H(1)   Bbb    -0.0001    -0.033    -0.012    -0.011  0.5022 -0.5210  0.6901
              Bcc     0.0010     0.545     0.194     0.182  0.5204  0.8195  0.2399
 
              Baa    -0.0034    -1.817    -0.648    -0.606  0.6363 -0.5972  0.4884
    43 H(1)   Bbb    -0.0006    -0.308    -0.110    -0.103 -0.6038  0.0085  0.7971
              Bcc     0.0040     2.126     0.758     0.709  0.4802  0.8021  0.3552
 

 ---------------------------------------------------------------------------------

 No NMR shielding tensors so no spin-rotation constants.
 Leave Link  601 at Thu Nov  6 07:20:39 2025, MaxMem= 30870077440 cpu:             135.0 elap:               2.4
 (Enter /public/software/gauss/g16/l9999.exe)
 1\1\GINC-CU015\SP\UM062X\def2TZVPP\C20H15B1F2N2O1S2(1-,2)\BAIDING\06-N
 ov-2025\0\\#p M062X/DEF2TZVPP scrf=(solvent=water) em=GD3\\Energy calc
 ulation for M100033020_reduced\\-1,2\C,0,-5.605391,1.172591,-0.2226\C,
 0,-4.117979,1.345922,-0.099491\C,0,-3.455365,2.576517,-0.062496\C,0,-2
 .077215,2.324309,0.07405\C,0,-0.990221,3.213294,0.079152\C,0,0.325459,
 2.739428,0.096581\C,0,1.534454,3.458795,-0.043151\C,0,2.580262,2.54968
 9,-0.072436\C,0,4.025333,2.930851,-0.207677\C,0,2.0106,1.244608,0.0862
 83\C,0,2.710486,0.000393,0.180145\C,0,2.300326,-1.220201,0.746737\C,0,
 3.250554,-2.237108,0.659263\C,0,4.432838,-1.858987,0.025723\C,0,5.5916
 48,-2.655439,-0.201781\O,0,6.639525,-2.270962,-0.755164\S,0,4.34843,-0
 .176985,-0.475088\N,0,0.618983,1.387397,0.185997\B,0,-0.484555,0.29462
 5,0.313844\F,0,-0.291139,-0.704941,-0.646977\F,0,-0.409616,-0.285198,1
 .614116\N,0,-1.881305,0.951489,0.138813\C,0,-3.129071,0.339627,0.03250
 9\C,0,-3.336513,-1.099233,0.077709\C,0,-2.701418,-2.072605,0.825342\C,
 0,-3.190202,-3.389436,0.596197\C,0,-4.200112,-3.438456,-0.325617\S,0,-
 4.568221,-1.858042,-0.939951\H,0,-5.913743,0.894432,-1.237645\H,0,-5.9
 89562,0.401008,0.452178\H,0,-6.11102,2.11207,0.019919\H,0,-3.908423,3.
 557145,-0.131451\H,0,-1.170308,4.278824,-0.001331\H,0,1.613323,4.53499
 6,-0.125896\H,0,4.447014,2.637483,-1.176231\H,0,4.127255,4.016602,-0.1
 25265\H,0,4.651523,2.475395,0.566899\H,0,1.348124,-1.330718,1.241476\H
 ,0,3.106312,-3.2343,1.06263\H,0,5.499727,-3.697757,0.159388\H,0,-1.912
 262,-1.835089,1.524546\H,0,-2.812221,-4.266393,1.110389\H,0,-4.760307,
 -4.296985,-0.671468\\Version=ES64L-G16RevA.03\State=2-A\HF=-1977.12977
 94\S2=0.796582\S2-1=0.\S2A=0.751452\RMSD=5.106e-09\Dipole=-2.7144058,0
 .4756001,0.5429686\Quadrupole=-37.2306971,27.9469398,9.2837572,13.0666
 842,10.5673814,-6.4249422\PG=C01 [X(C20H15B1F2N2O1S2)]\\@


 IT WAS AN ACT OF DESPARATION. FOR SIX YEARS I HAD STRUGGLED WITH THE
 BLACKBODY THEORY. I KNEW THE PROBLEM WAS FUNDAMENTAL, AND I KNEW
 THE ANSWER. I HAD TO FIND A THEORETICAL EXPLANATION AT ANY COST,
 EXCEPT FOR THE INVIOLABLITY OF THE TWO LAWS OF THERMODYNAMICS.
   -- MAX PLANCK, 1931
 Job cpu time:       0 days 14 hours 56 minutes 29.0 seconds.
 Elapsed time:       0 days  0 hours 14 minutes  9.0 seconds.
 File lengths (MBytes):  RWF=   1319 Int=      0 D2E=      0 Chk=     86 Scr=      1
 Normal termination of Gaussian 16 at Thu Nov  6 07:20:40 2025.
