 Entering Gaussian System, Link 0=g16
 Input=M100034928_sp.gjf
 Output=M100034928_sp.log
 Initial command:
 /work/home/accqbws0vm/apprepo/gaussian/16-hy/scripts/../app/g16/l1.exe "/work/home/accqbws0vm/1012_third_energy/tmp_M100034928_sp_25977247/Gau-26475.inp" -scrdir="/work/home/accqbws0vm/1012_third_energy/tmp_M100034928_sp_25977247/"
 Entering Link 1 = /work/home/accqbws0vm/apprepo/gaussian/16-hy/scripts/../app/g16/l1.exe PID=     26476.
  
 Copyright (c) 1988,1990,1992,1993,1995,1998,2003,2009,2016,
            Gaussian, Inc.  All Rights Reserved.
  
 This is part of the Gaussian(R) 16 program.  It is based on
 the Gaussian(R) 09 system (copyright 2009, Gaussian, Inc.),
 the Gaussian(R) 03 system (copyright 2003, Gaussian, Inc.),
 the Gaussian(R) 98 system (copyright 1998, Gaussian, Inc.),
 the Gaussian(R) 94 system (copyright 1995, Gaussian, Inc.),
 the Gaussian 92(TM) system (copyright 1992, Gaussian, Inc.),
 the Gaussian 90(TM) system (copyright 1990, Gaussian, Inc.),
 the Gaussian 88(TM) system (copyright 1988, Gaussian, Inc.),
 the Gaussian 86(TM) system (copyright 1986, Carnegie Mellon
 University), and the Gaussian 82(TM) system (copyright 1983,
 Carnegie Mellon University). Gaussian is a federally registered
 trademark of Gaussian, Inc.
  
 This software contains proprietary and confidential information,
 including trade secrets, belonging to Gaussian, Inc.
  
 This software is provided under written license and may be
 used, copied, transmitted, or stored only in accord with that
 written license.
  
 The following legend is applicable only to US Government
 contracts under FAR:
  
                    RESTRICTED RIGHTS LEGEND
  
 Use, reproduction and disclosure by the US Government is
 subject to restrictions as set forth in subparagraphs (a)
 and (c) of the Commercial Computer Software - Restricted
 Rights clause in FAR 52.227-19.
  
 Gaussian, Inc.
 340 Quinnipiac St., Bldg. 40, Wallingford CT 06492
  
  
 ---------------------------------------------------------------
 Warning -- This program may not be used in any manner that
 competes with the business of Gaussian, Inc. or will provide
 assistance to any competitor of Gaussian, Inc.  The licensee
 of this program is prohibited from giving any competitor of
 Gaussian, Inc. access to this program.  By using this program,
 the user acknowledges that Gaussian, Inc. is engaged in the
 business of creating and licensing software in the field of
 computational chemistry and represents and warrants to the
 licensee that it is not a competitor of Gaussian, Inc. and that
 it will not use this program in any manner prohibited above.
 ---------------------------------------------------------------
  

 Cite this work as:
 Gaussian 16, Revision A.03,
 M. J. Frisch, G. W. Trucks, H. B. Schlegel, G. E. Scuseria, 
 M. A. Robb, J. R. Cheeseman, G. Scalmani, V. Barone, 
 G. A. Petersson, H. Nakatsuji, X. Li, M. Caricato, A. V. Marenich, 
 J. Bloino, B. G. Janesko, R. Gomperts, B. Mennucci, H. P. Hratchian, 
 J. V. Ortiz, A. F. Izmaylov, J. L. Sonnenberg, D. Williams-Young, 
 F. Ding, F. Lipparini, F. Egidi, J. Goings, B. Peng, A. Petrone, 
 T. Henderson, D. Ranasinghe, V. G. Zakrzewski, J. Gao, N. Rega, 
 G. Zheng, W. Liang, M. Hada, M. Ehara, K. Toyota, R. Fukuda, 
 J. Hasegawa, M. Ishida, T. Nakajima, Y. Honda, O. Kitao, H. Nakai, 
 T. Vreven, K. Throssell, J. A. Montgomery, Jr., J. E. Peralta, 
 F. Ogliaro, M. J. Bearpark, J. J. Heyd, E. N. Brothers, K. N. Kudin, 
 V. N. Staroverov, T. A. Keith, R. Kobayashi, J. Normand, 
 K. Raghavachari, A. P. Rendell, J. C. Burant, S. S. Iyengar, 
 J. Tomasi, M. Cossi, J. M. Millam, M. Klene, C. Adamo, R. Cammi, 
 J. W. Ochterski, R. L. Martin, K. Morokuma, O. Farkas, 
 J. B. Foresman, and D. J. Fox, Gaussian, Inc., Wallingford CT, 2016.
 
 ******************************************
 Gaussian 16:  ES64L-G16RevA.03 25-Dec-2016
                12-Oct-2025 
 ******************************************
 %nprocshared=64
 Will use up to   64 processors via shared memory.
 %mem=230GB
 %chk=M100034928_sp.chk
 ----------------------------------------------
 #p M062X/DEF2TZVPP scrf=(solvent=water) em=GD3
 ----------------------------------------------
 1/38=1,172=1/1;
 2/12=2,17=6,18=5,40=1/2;
 3/5=44,7=202,11=2,25=1,30=1,70=2201,72=1,74=-55,124=31/1,2,3;
 4//1;
 5/5=2,38=5,53=1/2;
 6/7=2,8=2,9=2,10=2,28=1/1;
 99/5=1,9=1/99;
 Leave Link    1 at Sun Oct 12 09:24:15 2025, MaxMem= 30870077440 cpu:               6.0 elap:               0.1
 (Enter /work/home/accqbws0vm/apprepo/gaussian/16-hy/scripts/../app/g16/l101.exe)
 ---------------------------------
 Energy calculation for M100034928
 ---------------------------------
 Symbolic Z-matrix:
 Charge =  0 Multiplicity = 1
 C                     3.68653   8.12299   1.0172 
 O                     4.70136   7.12404   0.83633 
 C                     4.3297    5.90492   0.38139 
 C                     5.38539   4.96553   0.22215 
 O                     6.62713   5.41292   0.54529 
 C                     7.72392   4.50111   0.40222 
 C                     5.09347   3.70118  -0.26256 
 C                     3.77042   3.35352  -0.57757 
 N                     3.60807   2.06029  -1.2245 
 O                     4.41754   1.16414  -0.94632 
 O                     2.70904   1.91305  -2.05876 
 C                     2.6946    4.23928  -0.378 
 C                     1.25691   3.95024  -0.50861 
 C                     0.64407   2.82774  -0.077 
 C                    -0.77605   2.54097  -0.12758 
 C                    -1.93213   3.37232  -0.22443 
 I                    -1.98346   5.46449  -0.25285 
 C                    -3.07284   2.57136  -0.19919 
 C                    -4.48735   3.05195  -0.28188 
 C                    -2.59729   1.22283  -0.07473 
 C                    -3.29008  -0.00055   0.00001 
 C                    -4.78366  -0.00084  0. 
 C                    -5.4864   -0.25212  -1.18818 
 C                    -6.87722  -0.24967  -1.19643 
 C                    -7.54994  -0.0014   -0.00004 
 N                    -9.01135  -0.00169  -0.00006 
 O                    -9.59817  -0.2166   -1.06493 
 O                    -9.59828   0.21297   1.0648 
 C                    -6.87735   0.24714   1.19637 
 C                    -5.48653   0.25015   1.18815 
 C                    -2.59683  -1.22367   0.07475 
 C                    -3.07187  -2.57237   0.19931 
 C                    -4.48618  -3.0535    0.2821 
 C                    -1.93085  -3.37289   0.22452 
 I                    -1.98137  -5.46508   0.25297 
 C                    -0.77509  -2.5411    0.12758 
 C                     0.64513  -2.82737   0.07689 
 C                     1.25839  -3.94951   0.5088 
 C                     2.69616  -4.23819   0.37809 
 C                     3.02501  -5.52879  -0.08172 
 C                     4.33162  -5.90364  -0.38093 
 O                     4.70356  -7.12283  -0.83545 
 C                     3.689    -8.12216  -1.01572 
 C                     5.38706  -4.9639   -0.22217 
 O                     6.62889  -5.41105  -0.54532 
 C                     7.72548  -4.49895  -0.40255 
 C                     5.09485  -3.69945   0.26214 
 C                     3.77175  -3.35206   0.57721 
 N                     3.60913  -2.05867   1.22375 
 O                     4.41828  -1.16237   0.94514 
 O                     2.7102   -1.91144   2.05812 
 N                    -1.20586  -1.25108   0.0341 
 B                    -0.28489   0.00001  -0.00019 
 F                     0.52258  -0.0285   -1.14363 
 F                     0.523     0.02879   1.14294 
 N                    -1.20632   1.25077  -0.03412 
 C                     3.02316   5.52981   0.08221 
 H                     2.95063   7.80272   1.76148 
 H                     4.21032   9.00903   1.37597 
 H                     3.18566   8.34837   0.07047 
 H                     7.58561   3.61734   1.03381 
 H                     7.84665   4.19444  -0.64185 
 H                     8.60737   5.05039   0.72835 
 H                     5.87709   2.97899  -0.44317 
 H                     0.67101   4.76986  -0.91044 
 H                     1.24456   2.03416   0.35381 
 H                    -4.99161   2.98715   0.68805 
 H                    -4.51114   4.09571  -0.59997 
 H                    -5.07305   2.46681  -0.99376 
 H                    -4.94322  -0.44594  -2.10671 
 H                    -7.43119  -0.43838  -2.1071 
 H                    -7.43142   0.43563   2.10702 
 H                    -4.94345   0.4442    2.1067 
 H                    -5.07214  -2.4684    0.99379 
 H                    -4.99045  -2.98919  -0.68786 
 H                    -4.50956  -4.09718   0.60049 
 H                     1.24528  -2.03371  -0.35426 
 H                     0.6728   -4.76916   0.91104 
 H                     2.21704  -6.23228  -0.24015 
 H                     3.18836  -8.34728  -0.0688 
 H                     2.95288  -7.80243  -1.76001 
 H                     4.21299  -9.0082   -1.3742 
 H                     7.84816  -4.19194   0.64142 
 H                     8.60904  -5.04814  -0.72854 
 H                     7.58695  -3.6154   -1.03441 
 H                     5.8783   -2.97698   0.44241 
 H                     2.21501   6.23303   0.24099 
 
 ITRead=  0  0  0  0  0  0  0  0  0  0  0  0  0  0  0  0  0  0  0  0
 ITRead=  0  0  0  0  0  0  0  0  0  0  0  0  0  0  0  0  0  0  0  0
 ITRead=  0  0  0  0  0  0  0  0  0  0  0  0  0  0  0  0  0  0  0  0
 ITRead=  0  0  0  0  0  0  0  0  0  0  0  0  0  0  0  0  0  0  0  0
 ITRead=  0  0  0  0  0  0  0
 MicOpt= -1 -1 -1 -1 -1 -1 -1 -1 -1 -1 -1 -1 -1 -1 -1 -1 -1 -1 -1 -1
 MicOpt= -1 -1 -1 -1 -1 -1 -1 -1 -1 -1 -1 -1 -1 -1 -1 -1 -1 -1 -1 -1
 MicOpt= -1 -1 -1 -1 -1 -1 -1 -1 -1 -1 -1 -1 -1 -1 -1 -1 -1 -1 -1 -1
 MicOpt= -1 -1 -1 -1 -1 -1 -1 -1 -1 -1 -1 -1 -1 -1 -1 -1 -1 -1 -1 -1
 MicOpt= -1 -1 -1 -1 -1 -1 -1
 NAtoms=     87 NQM=       87 NQMF=       0 NMMI=      0 NMMIF=      0
                NMic=       0 NMicF=      0.
                    Isotopes and Nuclear Properties:
 (Nuclear quadrupole moments (NQMom) in fm**2, nuclear magnetic moments (NMagM)
  in nuclear magnetons)

  Atom         1           2           3           4           5           6           7           8           9          10
 IAtWgt=          12          16          12          12          16          12          12          12          14          16
 AtmWgt=  12.0000000  15.9949146  12.0000000  12.0000000  15.9949146  12.0000000  12.0000000  12.0000000  14.0030740  15.9949146
 NucSpn=           0           0           0           0           0           0           0           0           2           0
 AtZEff=  -0.0000000  -0.0000000  -0.0000000  -0.0000000  -0.0000000  -0.0000000  -0.0000000  -0.0000000  -0.0000000  -0.0000000
 NQMom=    0.0000000   0.0000000   0.0000000   0.0000000   0.0000000   0.0000000   0.0000000   0.0000000   2.0440000   0.0000000
 NMagM=    0.0000000   0.0000000   0.0000000   0.0000000   0.0000000   0.0000000   0.0000000   0.0000000   0.4037610   0.0000000
 AtZNuc=   6.0000000   8.0000000   6.0000000   6.0000000   8.0000000   6.0000000   6.0000000   6.0000000   7.0000000   8.0000000

  Atom        11          12          13          14          15          16          17          18          19          20
 IAtWgt=          16          12          12          12          12          12         127          12          12          12
 AtmWgt=  15.9949146  12.0000000  12.0000000  12.0000000  12.0000000  12.0000000 126.9004000  12.0000000  12.0000000  12.0000000
 NucSpn=           0           0           0           0           0           0           5           0           0           0
 AtZEff=  -0.0000000  -0.0000000  -0.0000000  -0.0000000  -0.0000000  -0.0000000  -0.0000000  -0.0000000  -0.0000000  -0.0000000
 NQMom=    0.0000000   0.0000000   0.0000000   0.0000000   0.0000000   0.0000000 -71.0000000   0.0000000   0.0000000   0.0000000
 NMagM=    0.0000000   0.0000000   0.0000000   0.0000000   0.0000000   0.0000000   2.8132800   0.0000000   0.0000000   0.0000000
 AtZNuc=   8.0000000   6.0000000   6.0000000   6.0000000   6.0000000   6.0000000  53.0000000   6.0000000   6.0000000   6.0000000

  Atom        21          22          23          24          25          26          27          28          29          30
 IAtWgt=          12          12          12          12          12          14          16          16          12          12
 AtmWgt=  12.0000000  12.0000000  12.0000000  12.0000000  12.0000000  14.0030740  15.9949146  15.9949146  12.0000000  12.0000000
 NucSpn=           0           0           0           0           0           2           0           0           0           0
 AtZEff=  -0.0000000  -0.0000000  -0.0000000  -0.0000000  -0.0000000  -0.0000000  -0.0000000  -0.0000000  -0.0000000  -0.0000000
 NQMom=    0.0000000   0.0000000   0.0000000   0.0000000   0.0000000   2.0440000   0.0000000   0.0000000   0.0000000   0.0000000
 NMagM=    0.0000000   0.0000000   0.0000000   0.0000000   0.0000000   0.4037610   0.0000000   0.0000000   0.0000000   0.0000000
 AtZNuc=   6.0000000   6.0000000   6.0000000   6.0000000   6.0000000   7.0000000   8.0000000   8.0000000   6.0000000   6.0000000

  Atom        31          32          33          34          35          36          37          38          39          40
 IAtWgt=          12          12          12          12         127          12          12          12          12          12
 AtmWgt=  12.0000000  12.0000000  12.0000000  12.0000000 126.9004000  12.0000000  12.0000000  12.0000000  12.0000000  12.0000000
 NucSpn=           0           0           0           0           5           0           0           0           0           0
 AtZEff=  -0.0000000  -0.0000000  -0.0000000  -0.0000000  -0.0000000  -0.0000000  -0.0000000  -0.0000000  -0.0000000  -0.0000000
 NQMom=    0.0000000   0.0000000   0.0000000   0.0000000 -71.0000000   0.0000000   0.0000000   0.0000000   0.0000000   0.0000000
 NMagM=    0.0000000   0.0000000   0.0000000   0.0000000   2.8132800   0.0000000   0.0000000   0.0000000   0.0000000   0.0000000
 AtZNuc=   6.0000000   6.0000000   6.0000000   6.0000000  53.0000000   6.0000000   6.0000000   6.0000000   6.0000000   6.0000000

  Atom        41          42          43          44          45          46          47          48          49          50
 IAtWgt=          12          16          12          12          16          12          12          12          14          16
 AtmWgt=  12.0000000  15.9949146  12.0000000  12.0000000  15.9949146  12.0000000  12.0000000  12.0000000  14.0030740  15.9949146
 NucSpn=           0           0           0           0           0           0           0           0           2           0
 AtZEff=  -0.0000000  -0.0000000  -0.0000000  -0.0000000  -0.0000000  -0.0000000  -0.0000000  -0.0000000  -0.0000000  -0.0000000
 NQMom=    0.0000000   0.0000000   0.0000000   0.0000000   0.0000000   0.0000000   0.0000000   0.0000000   2.0440000   0.0000000
 NMagM=    0.0000000   0.0000000   0.0000000   0.0000000   0.0000000   0.0000000   0.0000000   0.0000000   0.4037610   0.0000000
 AtZNuc=   6.0000000   8.0000000   6.0000000   6.0000000   8.0000000   6.0000000   6.0000000   6.0000000   7.0000000   8.0000000

  Atom        51          52          53          54          55          56          57          58          59          60
 IAtWgt=          16          14          11          19          19          14          12           1           1           1
 AtmWgt=  15.9949146  14.0030740  11.0093053  18.9984032  18.9984032  14.0030740  12.0000000   1.0078250   1.0078250   1.0078250
 NucSpn=           0           2           3           1           1           2           0           1           1           1
 AtZEff=  -0.0000000  -0.0000000  -0.0000000  -0.0000000  -0.0000000  -0.0000000  -0.0000000  -0.0000000  -0.0000000  -0.0000000
 NQMom=    0.0000000   2.0440000   4.0590000   0.0000000   0.0000000   2.0440000   0.0000000   0.0000000   0.0000000   0.0000000
 NMagM=    0.0000000   0.4037610   2.6886370   2.6288670   2.6288670   0.4037610   0.0000000   2.7928460   2.7928460   2.7928460
 AtZNuc=   8.0000000   7.0000000   5.0000000   9.0000000   9.0000000   7.0000000   6.0000000   1.0000000   1.0000000   1.0000000

  Atom        61          62          63          64          65          66          67          68          69          70
 IAtWgt=           1           1           1           1           1           1           1           1           1           1
 AtmWgt=   1.0078250   1.0078250   1.0078250   1.0078250   1.0078250   1.0078250   1.0078250   1.0078250   1.0078250   1.0078250
 NucSpn=           1           1           1           1           1           1           1           1           1           1
 AtZEff=  -0.0000000  -0.0000000  -0.0000000  -0.0000000  -0.0000000  -0.0000000  -0.0000000  -0.0000000  -0.0000000  -0.0000000
 NQMom=    0.0000000   0.0000000   0.0000000   0.0000000   0.0000000   0.0000000   0.0000000   0.0000000   0.0000000   0.0000000
 NMagM=    2.7928460   2.7928460   2.7928460   2.7928460   2.7928460   2.7928460   2.7928460   2.7928460   2.7928460   2.7928460
 AtZNuc=   1.0000000   1.0000000   1.0000000   1.0000000   1.0000000   1.0000000   1.0000000   1.0000000   1.0000000   1.0000000

  Atom        71          72          73          74          75          76          77          78          79          80
 IAtWgt=           1           1           1           1           1           1           1           1           1           1
 AtmWgt=   1.0078250   1.0078250   1.0078250   1.0078250   1.0078250   1.0078250   1.0078250   1.0078250   1.0078250   1.0078250
 NucSpn=           1           1           1           1           1           1           1           1           1           1
 AtZEff=  -0.0000000  -0.0000000  -0.0000000  -0.0000000  -0.0000000  -0.0000000  -0.0000000  -0.0000000  -0.0000000  -0.0000000
 NQMom=    0.0000000   0.0000000   0.0000000   0.0000000   0.0000000   0.0000000   0.0000000   0.0000000   0.0000000   0.0000000
 NMagM=    2.7928460   2.7928460   2.7928460   2.7928460   2.7928460   2.7928460   2.7928460   2.7928460   2.7928460   2.7928460
 AtZNuc=   1.0000000   1.0000000   1.0000000   1.0000000   1.0000000   1.0000000   1.0000000   1.0000000   1.0000000   1.0000000

  Atom        81          82          83          84          85          86          87
 IAtWgt=           1           1           1           1           1           1           1
 AtmWgt=   1.0078250   1.0078250   1.0078250   1.0078250   1.0078250   1.0078250   1.0078250
 NucSpn=           1           1           1           1           1           1           1
 AtZEff=  -0.0000000  -0.0000000  -0.0000000  -0.0000000  -0.0000000  -0.0000000  -0.0000000
 NQMom=    0.0000000   0.0000000   0.0000000   0.0000000   0.0000000   0.0000000   0.0000000
 NMagM=    2.7928460   2.7928460   2.7928460   2.7928460   2.7928460   2.7928460   2.7928460
 AtZNuc=   1.0000000   1.0000000   1.0000000   1.0000000   1.0000000   1.0000000   1.0000000
 Leave Link  101 at Sun Oct 12 09:24:15 2025, MaxMem= 30870077440 cpu:               7.4 elap:               0.2
 (Enter /work/home/accqbws0vm/apprepo/gaussian/16-hy/scripts/../app/g16/l202.exe)
 Stoichiometry    C37H30BF2I2N5O10
 Framework group  C1[X(C37H30BF2I2N5O10)]
 Deg. of freedom   255
 Full point group                 C1      NOp   1
 Largest Abelian subgroup         C1      NOp   1
 Largest concise Abelian subgroup C1      NOp   1
                         Standard orientation:                         
 ---------------------------------------------------------------------
 Center     Atomic      Atomic             Coordinates (Angstroms)
 Number     Number       Type             X           Y           Z
 ---------------------------------------------------------------------
      1          6           0       -3.686532    8.122988   -1.017200
      2          8           0       -4.701366    7.124034   -0.836332
      3          6           0       -4.329701    5.904921   -0.381394
      4          6           0       -5.385389    4.965532   -0.222152
      5          8           0       -6.627130    5.412915   -0.545289
      6          6           0       -7.723922    4.501108   -0.402217
      7          6           0       -5.093472    3.701174    0.262562
      8          6           0       -3.770423    3.353515    0.577567
      9          7           0       -3.608072    2.060286    1.224501
     10          8           0       -4.417536    1.164138    0.946323
     11          8           0       -2.709035    1.913049    2.058761
     12          6           0       -2.694603    4.239283    0.377996
     13          6           0       -1.256907    3.950238    0.508606
     14          6           0       -0.644069    2.827743    0.076997
     15          6           0        0.776044    2.540965    0.127576
     16          6           0        1.932125    3.372317    0.224428
     17         53           0        1.983459    5.464494    0.252849
     18          6           0        3.072838    2.571362    0.199194
     19          6           0        4.487345    3.051951    0.281879
     20          6           0        2.597286    1.222834    0.074726
     21          6           0        3.290078   -0.000545   -0.000010
     22          6           0        4.783658   -0.000839    0.000002
     23          6           0        5.486397   -0.252118    1.188175
     24          6           0        6.877215   -0.249665    1.196428
     25          6           0        7.549937   -0.001395    0.000040
     26          7           0        9.011352   -0.001689    0.000060
     27          8           0        9.598171   -0.216597    1.064933
     28          8           0        9.598283    0.212973   -1.064800
     29          6           0        6.877348    0.247143   -1.196367
     30          6           0        5.486532    0.250155   -1.188150
     31          6           0        2.596831   -1.223664   -0.074745
     32          6           0        3.071869   -2.572367   -0.199308
     33          6           0        4.486183   -3.053504   -0.282102
     34          6           0        1.930849   -3.372888   -0.224516
     35         53           0        1.981373   -5.465084   -0.252969
     36          6           0        0.775088   -2.541100   -0.127581
     37          6           0       -0.645129   -2.827369   -0.076887
     38          6           0       -1.258389   -3.949514   -0.508799
     39          6           0       -2.696154   -4.238195   -0.378085
     40          6           0       -3.025011   -5.528786    0.081718
     41          6           0       -4.331616   -5.903644    0.380930
     42          8           0       -4.703562   -7.122830    0.835450
     43          6           0       -3.688995   -8.122164    1.015717
     44          6           0       -5.387061   -4.963900    0.222170
     45          8           0       -6.628884   -5.411055    0.545318
     46          6           0       -7.725475   -4.498956    0.402551
     47          6           0       -5.094854   -3.699453   -0.262139
     48          6           0       -3.771750   -3.352060   -0.577208
     49          7           0       -3.609127   -2.058669   -1.223750
     50          8           0       -4.418275   -1.162369   -0.945138
     51          8           0       -2.710197   -1.911438   -2.058124
     52          7           0        1.205860   -1.251077   -0.034096
     53          5           0        0.284886    0.000010    0.000191
     54          9           0       -0.522579   -0.028500    1.143625
     55          9           0       -0.522999    0.028789   -1.142941
     56          7           0        1.206322    1.250769    0.034118
     57          6           0       -3.023164    5.529811   -0.082206
     58          1           0       -2.950634    7.802719   -1.761478
     59          1           0       -4.210323    9.009029   -1.375969
     60          1           0       -3.185666    8.348366   -0.070465
     61          1           0       -7.585608    3.617334   -1.033815
     62          1           0       -7.846646    4.194434    0.641851
     63          1           0       -8.607374    5.050392   -0.728348
     64          1           0       -5.877094    2.978987    0.443173
     65          1           0       -0.671008    4.769860    0.910443
     66          1           0       -1.244557    2.034155   -0.353811
     67          1           0        4.991612    2.987147   -0.688048
     68          1           0        4.511139    4.095707    0.599971
     69          1           0        5.073045    2.466806    0.993761
     70          1           0        4.943216   -0.445934    2.106713
     71          1           0        7.431189   -0.438376    2.107100
     72          1           0        7.431423    0.435633   -2.107024
     73          1           0        4.943453    0.444198   -2.106701
     74          1           0        5.072145   -2.468398   -0.993794
     75          1           0        4.990449   -2.989191    0.687862
     76          1           0        4.509556   -4.097182   -0.600487
     77          1           0       -1.245279   -2.033707    0.354262
     78          1           0       -0.672795   -4.769157   -0.911037
     79          1           0       -2.217035   -6.232282    0.240145
     80          1           0       -3.188357   -8.347286    0.068801
     81          1           0       -2.952873   -7.802434    1.760006
     82          1           0       -4.212988   -9.008202    1.374200
     83          1           0       -7.848158   -4.191942   -0.641423
     84          1           0       -8.609042   -5.048137    0.728544
     85          1           0       -7.586946   -3.615403    1.034410
     86          1           0       -5.878294   -2.976984   -0.442406
     87          1           0       -2.215014    6.233027   -0.240987
 ---------------------------------------------------------------------
 Rotational constants (GHZ):           0.0280097           0.0274662           0.0142616
 Leave Link  202 at Sun Oct 12 09:24:15 2025, MaxMem= 30870077440 cpu:               1.3 elap:               0.0
 (Enter /work/home/accqbws0vm/apprepo/gaussian/16-hy/scripts/../app/g16/l301.exe)
 Standard basis: def2TZVPP (5D, 7F)
 Ernie: Thresh=  0.10000D-02 Tol=  0.10000D-05 Strict=F.
 There are  2548 symmetry adapted cartesian basis functions of A   symmetry.
 There are  2225 symmetry adapted basis functions of A   symmetry.
  2225 basis functions,  3533 primitive gaussians,  2548 cartesian basis functions
   220 alpha electrons      220 beta electrons
       nuclear repulsion energy      8759.0470325010 Hartrees.
 IExCor= 4336 DFT=T Ex+Corr=M062X ExCW=0 ScaHFX=  0.540000
 ScaDFX=  1.000000  1.000000  1.000000  1.000000 ScalE2=  1.000000  1.000000
 IRadAn=      5 IRanWt=     -1 IRanGd=            0 ICorTp=0 IEmpDi=131
 NAtoms=   87 NActive=   87 NUniq=   87 SFac= 1.00D+00 NAtFMM=   60 NAOKFM=T Big=T
 Integral buffers will be    131072 words long.
 Raffenetti 2 integral format.
 Two-electron integral symmetry is turned on.
 R6Disp:  Grimme-D3 Dispersion energy=       -0.0091758740 Hartrees.
 Nuclear repulsion after empirical dispersion term =     8759.0378566270 Hartrees.
 ------------------------------------------------------------------------------
 Polarizable Continuum Model (PCM)
 =================================
 Model                : PCM.
 Atomic radii         : UFF (Universal Force Field).
 Polarization charges : Total charges.
 Charge compensation  : None.
 Solution method      : On-the-fly selection.
 Cavity type          : Scaled VdW (van der Waals Surface) (Alpha=1.100).
 Cavity algorithm     : GePol (No added spheres)
                        Default sphere list used, NSphG=   87.
                        Lebedev-Laikov grids with approx.  5.0 points / Ang**2.
                        Smoothing algorithm: York/Karplus (Gamma=1.0000).
                        Polarization charges: spherical gaussians, with
                                              point-specific exponents (IZeta= 3).
                        Self-potential: point-specific (ISelfS= 7).
                        Self-field    : sphere-specific E.n sum rule (ISelfD= 2).
 Solvent              : Water, Eps=  78.355300 Eps(inf)=   1.777849
 ------------------------------------------------------------------------------
 GePol: Number of generator spheres                  =      87
 GePol: Total number of spheres                      =      87
 GePol: Number of exposed spheres                    =      87 (100.00%)
 GePol: Number of points                             =    6628
 GePol: Average weight of points                     =       0.13
 GePol: Minimum weight of points                     =   0.41D-11
 GePol: Maximum weight of points                     =    0.20577
 GePol: Number of points with low weight             =     463
 GePol: Fraction of low-weight points (<1% of avg)   =       6.99%
 GePol: Cavity surface area                          =    845.370 Ang**2
 GePol: Cavity volume                                =   1013.680 Ang**3
 Leave Link  301 at Sun Oct 12 09:24:16 2025, MaxMem= 30870077440 cpu:              12.9 elap:               0.2
 (Enter /work/home/accqbws0vm/apprepo/gaussian/16-hy/scripts/../app/g16/l302.exe)
 NPDir=0 NMtPBC=     1 NCelOv=     1 NCel=       1 NClECP=     1 NCelD=      1
         NCelK=      1 NCelE2=     1 NClLst=     1 CellRange=     0.0.
 One-electron integrals computed using PRISM.
 One-electron integral symmetry used in STVInt
   1 Symmetry operations used in ECPInt.
 ECPInt:  NShTT=  334153 NPrTT=  984873 LenC2=  195763 LenP2D=  376850.
 LDataN:  DoStor=T MaxTD1= 7 Len=  274
 Number of processors reduced to  43 by ecpmxn.
 NBasis=  2225 RedAO= T EigKep=  3.48D-06  NBF=  2225
 NBsUse=  2225 1.00D-06 EigRej= -1.00D+00 NBFU=  2225
 Precomputing XC quadrature grid using
 IXCGrd= 4 IRadAn=           5 IRanWt=          -1 IRanGd=           0 AccXCQ= 0.00D+00.
 Defaulting to unpruned grid for atomic number  53.
 Defaulting to unpruned grid for atomic number  53.
 Generated NRdTot=       0 NPtTot=           0 NUsed=           0 NTot=          32
 NSgBfM=  2153  2153  2153  2153  2153 MxSgAt=    87 MxSgA2=    87.
 Leave Link  302 at Sun Oct 12 09:24:35 2025, MaxMem= 30870077440 cpu:            1226.4 elap:              19.5
 (Enter /work/home/accqbws0vm/apprepo/gaussian/16-hy/scripts/../app/g16/l303.exe)
 DipDrv:  MaxL=1.
 Leave Link  303 at Sun Oct 12 09:24:36 2025, MaxMem= 30870077440 cpu:              43.7 elap:               0.8
 (Enter /work/home/accqbws0vm/apprepo/gaussian/16-hy/scripts/../app/g16/l401.exe)
 ExpMin= 6.06D-02 ExpMax= 3.55D+04 ExpMxC= 1.21D+03 IAcc=3 IRadAn=         5 AccDes= 0.00D+00
 Harris functional with IExCor= 1009 and IRadAn=       5 diagonalized for initial guess.
 HarFok:  IExCor= 1009 AccDes= 0.00D+00 IRadAn=         5 IDoV= 1 UseB2=F ITyADJ=14
 ICtDFT=  3500011 ScaDFX=  1.000000  1.000000  1.000000  1.000000
 Defaulting to unpruned grid for atomic number  53.
 FoFCou: FMM=F IPFlag=           0 FMFlag=      100000 FMFlg1=        2001
         NFxFlg=           0 DoJE=T BraDBF=F KetDBF=T FulRan=T
         wScrn=  0.000000 ICntrl=       500 IOpCl=  0 I1Cent=   200000004 NGrid=           0
         NMat0=    1 NMatS0=      1 NMatT0=    0 NMatD0=    1 NMtDS0=    0 NMtDT0=    0
 Petite list used in FoFCou.
 Harris En= -3272.87572621795    
 JPrj=0 DoOrth=F DoCkMO=F.
 Leave Link  401 at Sun Oct 12 09:24:50 2025, MaxMem= 30870077440 cpu:             889.0 elap:              14.0
 (Enter /work/home/accqbws0vm/apprepo/gaussian/16-hy/scripts/../app/g16/l502.exe)
 Integral symmetry usage will be decided dynamically.
 Closed shell SCF:
 Using DIIS extrapolation, IDIIS=  1040.
 NGot= 30870077440 LenX= 30856908561 LenY= 30850413709
 Requested convergence on RMS density matrix=1.00D-08 within 128 cycles.
 Requested convergence on MAX density matrix=1.00D-06.
 Requested convergence on             energy=1.00D-06.
 No special actions if energy rises.
 Fock matrices will be formed incrementally for  20 cycles.

 Cycle   1  Pass 1  IDiag  1:
 FoFJK:  IHMeth= 1 ICntrl=       0 DoSepK=F KAlg= 0 I1Cent=           0 FoldK=F
 IRaf= 540000000 NMat=       1 IRICut=       1 DoRegI=T DoRafI=F ISym2E= 0 IDoP0=0 IntGTp=1.
 FoFCou: FMM=T IPFlag=           0 FMFlag=      100000 FMFlg1=        2001
         NFxFlg=           0 DoJE=F BraDBF=F KetDBF=F FulRan=T
         wScrn=  0.000000 ICntrl=         0 IOpCl=  0 I1Cent=           0 NGrid=           0
         NMat0=    1 NMatS0=      1 NMatT0=    0 NMatD0=    1 NMtDS0=    0 NMtDT0=    0
 Symmetry not used in FoFCou.
 FMM levels:  10  Number of levels for PrismC:   9
 Defaulting to unpruned grid for atomic number  53.
 Defaulting to unpruned grid for atomic number  53.
 Defaulting to unpruned grid for atomic number  53.
 Defaulting to unpruned grid for atomic number  53.
 Defaulting to unpruned grid for atomic number  53.
 Defaulting to unpruned grid for atomic number  53.
 Defaulting to unpruned grid for atomic number  53.
 Defaulting to unpruned grid for atomic number  53.
 Defaulting to unpruned grid for atomic number  53.
 Defaulting to unpruned grid for atomic number  53.
 Defaulting to unpruned grid for atomic number  53.
 Defaulting to unpruned grid for atomic number  53.
 Defaulting to unpruned grid for atomic number  53.
 Defaulting to unpruned grid for atomic number  53.
 Defaulting to unpruned grid for atomic number  53.
 Defaulting to unpruned grid for atomic number  53.
 Defaulting to unpruned grid for atomic number  53.
 Defaulting to unpruned grid for atomic number  53.
 Defaulting to unpruned grid for atomic number  53.
 Defaulting to unpruned grid for atomic number  53.
 Defaulting to unpruned grid for atomic number  53.
 Defaulting to unpruned grid for atomic number  53.
 Defaulting to unpruned grid for atomic number  53.
 Defaulting to unpruned grid for atomic number  53.
 Defaulting to unpruned grid for atomic number  53.
 Defaulting to unpruned grid for atomic number  53.
 Defaulting to unpruned grid for atomic number  53.
 Defaulting to unpruned grid for atomic number  53.
 Defaulting to unpruned grid for atomic number  53.
 Defaulting to unpruned grid for atomic number  53.
 Defaulting to unpruned grid for atomic number  53.
 Defaulting to unpruned grid for atomic number  53.
 Defaulting to unpruned grid for atomic number  53.
 Defaulting to unpruned grid for atomic number  53.
 Defaulting to unpruned grid for atomic number  53.
 Defaulting to unpruned grid for atomic number  53.
 Defaulting to unpruned grid for atomic number  53.
 Defaulting to unpruned grid for atomic number  53.
 Defaulting to unpruned grid for atomic number  53.
 Defaulting to unpruned grid for atomic number  53.
 Defaulting to unpruned grid for atomic number  53.
 Defaulting to unpruned grid for atomic number  53.
 Defaulting to unpruned grid for atomic number  53.
 Defaulting to unpruned grid for atomic number  53.
 Defaulting to unpruned grid for atomic number  53.
 Defaulting to unpruned grid for atomic number  53.
 Defaulting to unpruned grid for atomic number  53.
 Defaulting to unpruned grid for atomic number  53.
 Defaulting to unpruned grid for atomic number  53.
 Defaulting to unpruned grid for atomic number  53.
 Defaulting to unpruned grid for atomic number  53.
 Defaulting to unpruned grid for atomic number  53.
 Defaulting to unpruned grid for atomic number  53.
 Defaulting to unpruned grid for atomic number  53.
 Defaulting to unpruned grid for atomic number  53.
 Defaulting to unpruned grid for atomic number  53.
 Defaulting to unpruned grid for atomic number  53.
 Defaulting to unpruned grid for atomic number  53.
 Defaulting to unpruned grid for atomic number  53.
 Defaulting to unpruned grid for atomic number  53.
 Defaulting to unpruned grid for atomic number  53.
 Defaulting to unpruned grid for atomic number  53.
 Defaulting to unpruned grid for atomic number  53.
 Defaulting to unpruned grid for atomic number  53.
 Inv3:  Mode=1 IEnd=   131791152.
 Iteration    1 A*A^-1 deviation from unit magnitude is 4.22D-15 for   4249.
 Iteration    1 A*A^-1 deviation from orthogonality  is 3.77D-15 for   5713    977.
 Iteration    1 A^-1*A deviation from unit magnitude is 4.00D-15 for   4249.
 Iteration    1 A^-1*A deviation from orthogonality  is 3.43D-14 for   5673   5655.
 E= -3272.28620829649    
 DIIS: error= 3.05D-02 at cycle   1 NSaved=   1.
 NSaved= 1 IEnMin= 1 EnMin= -3272.28620829649     IErMin= 1 ErrMin= 3.05D-02
 ErrMax= 3.05D-02  0.00D+00 EMaxC= 1.00D-01 BMatC= 1.97D+00 BMatP= 1.97D+00
 IDIUse=3 WtCom= 6.95D-01 WtEn= 3.05D-01
 Coeff-Com:  0.100D+01
 Coeff-En:   0.100D+01
 Coeff:      0.100D+01
 Gap=     0.259 Goal=   None    Shift=    0.000
 GapD=    0.259 DampG=1.000 DampE=0.500 DampFc=0.5000 IDamp=-1.
 Damping current iteration by 5.00D-01
 RMSDP=1.62D-03 MaxDP=2.44D-01              OVMax= 2.57D-01

 Cycle   2  Pass 1  IDiag  1:
 RMSU=  8.11D-04    CP:  1.00D+00
 E= -3272.91819007411     Delta-E=       -0.631981777618 Rises=F Damp=T
 DIIS: error= 5.53D-03 at cycle   2 NSaved=   2.
 NSaved= 2 IEnMin= 2 EnMin= -3272.91819007411     IErMin= 2 ErrMin= 5.53D-03
 ErrMax= 5.53D-03  0.00D+00 EMaxC= 1.00D-01 BMatC= 2.05D-01 BMatP= 1.97D+00
 IDIUse=3 WtCom= 9.45D-01 WtEn= 5.53D-02
 Coeff-Com: -0.593D-03 0.100D+01
 Coeff-En:   0.250D-01 0.975D+00
 Coeff:      0.820D-03 0.999D+00
 Gap=     0.189 Goal=   None    Shift=    0.000
 RMSDP=6.59D-04 MaxDP=9.89D-02 DE=-6.32D-01 OVMax= 2.02D-01

 Cycle   3  Pass 1  IDiag  1:
 RMSU=  6.03D-04    CP:  9.98D-01  1.33D+00
 E= -3273.58882408309     Delta-E=       -0.670634008973 Rises=F Damp=F
 DIIS: error= 9.84D-03 at cycle   3 NSaved=   3.
 NSaved= 3 IEnMin= 3 EnMin= -3273.58882408309     IErMin= 2 ErrMin= 5.53D-03
 ErrMax= 9.84D-03  0.00D+00 EMaxC= 1.00D-01 BMatC= 1.05D-01 BMatP= 2.05D-01
 IDIUse=3 WtCom= 9.02D-01 WtEn= 9.84D-02
 Coeff-Com: -0.929D-01 0.436D+00 0.657D+00
 Coeff-En:   0.000D+00 0.000D+00 0.100D+01
 Coeff:     -0.837D-01 0.393D+00 0.691D+00
 Gap=     0.140 Goal=   None    Shift=    0.000
 RMSDP=2.07D-04 MaxDP=2.17D-02 DE=-6.71D-01 OVMax= 5.88D-02

 Cycle   4  Pass 1  IDiag  1:
 RMSU=  2.05D-04    CP:  9.97D-01  1.35D+00  9.68D-01
 E= -3273.65315648597     Delta-E=       -0.064332402886 Rises=F Damp=F
 DIIS: error= 3.27D-03 at cycle   4 NSaved=   4.
 NSaved= 4 IEnMin= 4 EnMin= -3273.65315648597     IErMin= 4 ErrMin= 3.27D-03
 ErrMax= 3.27D-03  0.00D+00 EMaxC= 1.00D-01 BMatC= 1.77D-02 BMatP= 1.05D-01
 IDIUse=3 WtCom= 9.67D-01 WtEn= 3.27D-02
 Coeff-Com: -0.284D-01 0.740D-01 0.336D+00 0.619D+00
 Coeff-En:   0.000D+00 0.000D+00 0.125D+00 0.875D+00
 Coeff:     -0.275D-01 0.716D-01 0.329D+00 0.627D+00
 Gap=     0.141 Goal=   None    Shift=    0.000
 RMSDP=7.16D-05 MaxDP=1.32D-02 DE=-6.43D-02 OVMax= 1.48D-02

 Cycle   5  Pass 1  IDiag  1:
 RMSU=  5.53D-05    CP:  9.98D-01  1.35D+00  9.93D-01  7.91D-01
 E= -3273.66645510992     Delta-E=       -0.013298623944 Rises=F Damp=F
 DIIS: error= 3.55D-04 at cycle   5 NSaved=   5.
 NSaved= 5 IEnMin= 5 EnMin= -3273.66645510992     IErMin= 5 ErrMin= 3.55D-04
 ErrMax= 3.55D-04  0.00D+00 EMaxC= 1.00D-01 BMatC= 6.10D-04 BMatP= 1.77D-02
 IDIUse=3 WtCom= 9.96D-01 WtEn= 3.55D-03
 Coeff-Com: -0.796D-02 0.126D-01 0.116D+00 0.276D+00 0.603D+00
 Coeff-En:   0.000D+00 0.000D+00 0.000D+00 0.000D+00 0.100D+01
 Coeff:     -0.793D-02 0.126D-01 0.116D+00 0.275D+00 0.604D+00
 Gap=     0.142 Goal=   None    Shift=    0.000
 RMSDP=1.84D-05 MaxDP=2.41D-03 DE=-1.33D-02 OVMax= 5.38D-03

 Cycle   6  Pass 1  IDiag  1:
 RMSU=  1.67D-05    CP:  9.98D-01  1.35D+00  9.95D-01  8.25D-01  9.77D-01
 E= -3273.66697171150     Delta-E=       -0.000516601582 Rises=F Damp=F
 DIIS: error= 9.25D-05 at cycle   6 NSaved=   6.
 NSaved= 6 IEnMin= 6 EnMin= -3273.66697171150     IErMin= 6 ErrMin= 9.25D-05
 ErrMax= 9.25D-05  0.00D+00 EMaxC= 1.00D-01 BMatC= 4.92D-05 BMatP= 6.10D-04
 IDIUse=1 WtCom= 1.00D+00 WtEn= 0.00D+00
 Coeff-Com: -0.111D-03-0.252D-02 0.120D-01 0.432D-01 0.236D+00 0.711D+00
 Coeff:     -0.111D-03-0.252D-02 0.120D-01 0.432D-01 0.236D+00 0.711D+00
 Gap=     0.142 Goal=   None    Shift=    0.000
 RMSDP=1.04D-05 MaxDP=4.09D-03 DE=-5.17D-04 OVMax= 2.37D-03

 Cycle   7  Pass 1  IDiag  1:
 RMSU=  8.15D-06    CP:  9.98D-01  1.35D+00  1.00D+00  8.34D-01  1.06D+00
                    CP:  1.02D+00
 E= -3273.66702901050     Delta-E=       -0.000057299005 Rises=F Damp=F
 DIIS: error= 4.31D-05 at cycle   7 NSaved=   7.
 NSaved= 7 IEnMin= 7 EnMin= -3273.66702901050     IErMin= 7 ErrMin= 4.31D-05
 ErrMax= 4.31D-05  0.00D+00 EMaxC= 1.00D-01 BMatC= 7.61D-06 BMatP= 4.92D-05
 IDIUse=1 WtCom= 1.00D+00 WtEn= 0.00D+00
 Coeff-Com:  0.115D-02-0.305D-02-0.116D-01-0.217D-01 0.103D-01 0.297D+00
 Coeff-Com:  0.728D+00
 Coeff:      0.115D-02-0.305D-02-0.116D-01-0.217D-01 0.103D-01 0.297D+00
 Coeff:      0.728D+00
 Gap=     0.143 Goal=   None    Shift=    0.000
 RMSDP=3.87D-06 MaxDP=3.77D-04 DE=-5.73D-05 OVMax= 1.72D-03

 Cycle   8  Pass 1  IDiag  1:
 RMSU=  2.50D-06    CP:  9.98D-01  1.35D+00  1.00D+00  8.42D-01  1.10D+00
                    CP:  1.12D+00  9.48D-01
 E= -3273.66703963506     Delta-E=       -0.000010624559 Rises=F Damp=F
 DIIS: error= 1.83D-05 at cycle   8 NSaved=   8.
 NSaved= 8 IEnMin= 8 EnMin= -3273.66703963506     IErMin= 8 ErrMin= 1.83D-05
 ErrMax= 1.83D-05  0.00D+00 EMaxC= 1.00D-01 BMatC= 1.41D-06 BMatP= 7.61D-06
 IDIUse=1 WtCom= 1.00D+00 WtEn= 0.00D+00
 Coeff-Com:  0.562D-03-0.111D-02-0.687D-02-0.162D-01-0.283D-01 0.389D-01
 Coeff-Com:  0.340D+00 0.673D+00
 Coeff:      0.562D-03-0.111D-02-0.687D-02-0.162D-01-0.283D-01 0.389D-01
 Coeff:      0.340D+00 0.673D+00
 Gap=     0.143 Goal=   None    Shift=    0.000
 RMSDP=1.89D-06 MaxDP=7.81D-04 DE=-1.06D-05 OVMax= 6.41D-04

 Cycle   9  Pass 1  IDiag  1:
 RMSU=  1.03D-06    CP:  9.98D-01  1.35D+00  1.00D+00  8.43D-01  1.11D+00
                    CP:  1.14D+00  1.09D+00  1.06D+00
 E= -3273.66704152174     Delta-E=       -0.000001886679 Rises=F Damp=F
 DIIS: error= 9.85D-06 at cycle   9 NSaved=   9.
 NSaved= 9 IEnMin= 9 EnMin= -3273.66704152174     IErMin= 9 ErrMin= 9.85D-06
 ErrMax= 9.85D-06  0.00D+00 EMaxC= 1.00D-01 BMatC= 1.94D-07 BMatP= 1.41D-06
 IDIUse=1 WtCom= 1.00D+00 WtEn= 0.00D+00
 Coeff-Com:  0.914D-04-0.732D-04-0.134D-02-0.427D-02-0.141D-01-0.231D-01
 Coeff-Com:  0.557D-01 0.291D+00 0.696D+00
 Coeff:      0.914D-04-0.732D-04-0.134D-02-0.427D-02-0.141D-01-0.231D-01
 Coeff:      0.557D-01 0.291D+00 0.696D+00
 Gap=     0.143 Goal=   None    Shift=    0.000
 RMSDP=5.56D-07 MaxDP=8.36D-05 DE=-1.89D-06 OVMax= 2.82D-04

 Cycle  10  Pass 1  IDiag  1:
 RMSU=  4.23D-07    CP:  9.98D-01  1.35D+00  1.00D+00  8.43D-01  1.11D+00
                    CP:  1.15D+00  1.11D+00  1.17D+00  1.02D+00
 E= -3273.66704182588     Delta-E=       -0.000000304140 Rises=F Damp=F
 DIIS: error= 3.48D-06 at cycle  10 NSaved=  10.
 NSaved=10 IEnMin=10 EnMin= -3273.66704182588     IErMin=10 ErrMin= 3.48D-06
 ErrMax= 3.48D-06  0.00D+00 EMaxC= 1.00D-01 BMatC= 5.39D-08 BMatP= 1.94D-07
 IDIUse=1 WtCom= 1.00D+00 WtEn= 0.00D+00
 Coeff-Com: -0.585D-04 0.170D-03 0.656D-03 0.959D-03-0.159D-02-0.190D-01
 Coeff-Com: -0.395D-01-0.367D-02 0.367D+00 0.695D+00
 Coeff:     -0.585D-04 0.170D-03 0.656D-03 0.959D-03-0.159D-02-0.190D-01
 Coeff:     -0.395D-01-0.367D-02 0.367D+00 0.695D+00
 Gap=     0.143 Goal=   None    Shift=    0.000
 RMSDP=3.47D-07 MaxDP=1.04D-04 DE=-3.04D-07 OVMax= 1.14D-04

 Cycle  11  Pass 1  IDiag  1:
 RMSU=  1.83D-07    CP:  9.98D-01  1.35D+00  1.00D+00  8.43D-01  1.11D+00
                    CP:  1.15D+00  1.13D+00  1.22D+00  1.17D+00  9.92D-01
 E= -3273.66704189873     Delta-E=       -0.000000072852 Rises=F Damp=F
 DIIS: error= 1.39D-06 at cycle  11 NSaved=  11.
 NSaved=11 IEnMin=11 EnMin= -3273.66704189873     IErMin=11 ErrMin= 1.39D-06
 ErrMax= 1.39D-06  0.00D+00 EMaxC= 1.00D-01 BMatC= 7.58D-09 BMatP= 5.39D-08
 IDIUse=1 WtCom= 1.00D+00 WtEn= 0.00D+00
 Coeff-Com: -0.397D-04 0.884D-04 0.527D-03 0.115D-02 0.143D-02-0.586D-02
 Coeff-Com: -0.281D-01-0.516D-01 0.862D-01 0.348D+00 0.648D+00
 Coeff:     -0.397D-04 0.884D-04 0.527D-03 0.115D-02 0.143D-02-0.586D-02
 Coeff:     -0.281D-01-0.516D-01 0.862D-01 0.348D+00 0.648D+00
 Gap=     0.143 Goal=   None    Shift=    0.000
 RMSDP=1.05D-07 MaxDP=2.24D-05 DE=-7.29D-08 OVMax= 4.06D-05

 Cycle  12  Pass 1  IDiag  1:
 RMSU=  6.34D-08    CP:  9.98D-01  1.35D+00  1.00D+00  8.43D-01  1.11D+00
                    CP:  1.15D+00  1.13D+00  1.23D+00  1.22D+00  1.07D+00
                    CP:  9.90D-01
 E= -3273.66704190863     Delta-E=       -0.000000009899 Rises=F Damp=F
 DIIS: error= 4.33D-07 at cycle  12 NSaved=  12.
 NSaved=12 IEnMin=12 EnMin= -3273.66704190863     IErMin=12 ErrMin= 4.33D-07
 ErrMax= 4.33D-07  0.00D+00 EMaxC= 1.00D-01 BMatC= 7.89D-10 BMatP= 7.58D-09
 IDIUse=1 WtCom= 1.00D+00 WtEn= 0.00D+00
 Coeff-Com: -0.850D-05 0.144D-04 0.134D-03 0.358D-03 0.786D-03-0.935D-04
 Coeff-Com: -0.628D-02-0.219D-01-0.827D-02 0.503D-01 0.270D+00 0.715D+00
 Coeff:     -0.850D-05 0.144D-04 0.134D-03 0.358D-03 0.786D-03-0.935D-04
 Coeff:     -0.628D-02-0.219D-01-0.827D-02 0.503D-01 0.270D+00 0.715D+00
 Gap=     0.143 Goal=   None    Shift=    0.000
 RMSDP=3.70D-08 MaxDP=4.38D-06 DE=-9.90D-09 OVMax= 1.28D-05

 Cycle  13  Pass 1  IDiag  1:
 RMSU=  2.71D-08    CP:  9.98D-01  1.35D+00  1.00D+00  8.43D-01  1.11D+00
                    CP:  1.15D+00  1.13D+00  1.24D+00  1.23D+00  1.10D+00
                    CP:  1.08D+00  1.01D+00
 E= -3273.66704190926     Delta-E=       -0.000000000628 Rises=F Damp=F
 DIIS: error= 1.92D-07 at cycle  13 NSaved=  13.
 NSaved=13 IEnMin=13 EnMin= -3273.66704190926     IErMin=13 ErrMin= 1.92D-07
 ErrMax= 1.92D-07  0.00D+00 EMaxC= 1.00D-01 BMatC= 1.98D-10 BMatP= 7.89D-10
 IDIUse=1 WtCom= 1.00D+00 WtEn= 0.00D+00
 Coeff-Com:  0.133D-05-0.507D-05-0.831D-05 0.177D-04 0.198D-03 0.782D-03
 Coeff-Com:  0.924D-03-0.387D-02-0.168D-01-0.289D-01 0.412D-01 0.377D+00
 Coeff-Com:  0.630D+00
 Coeff:      0.133D-05-0.507D-05-0.831D-05 0.177D-04 0.198D-03 0.782D-03
 Coeff:      0.924D-03-0.387D-02-0.168D-01-0.289D-01 0.412D-01 0.377D+00
 Coeff:      0.630D+00
 Gap=     0.143 Goal=   None    Shift=    0.000
 RMSDP=1.60D-08 MaxDP=3.71D-06 DE=-6.28D-10 OVMax= 4.67D-06

 Cycle  14  Pass 1  IDiag  1:
 RMSU=  9.86D-09    CP:  9.98D-01  1.35D+00  1.00D+00  8.43D-01  1.11D+00
                    CP:  1.15D+00  1.14D+00  1.24D+00  1.24D+00  1.11D+00
                    CP:  1.11D+00  1.12D+00  9.36D-01
 E= -3273.66704190988     Delta-E=       -0.000000000615 Rises=F Damp=F
 DIIS: error= 9.07D-08 at cycle  14 NSaved=  14.
 NSaved=14 IEnMin=14 EnMin= -3273.66704190988     IErMin=14 ErrMin= 9.07D-08
 ErrMax= 9.07D-08  0.00D+00 EMaxC= 1.00D-01 BMatC= 3.75D-11 BMatP= 1.98D-10
 IDIUse=1 WtCom= 1.00D+00 WtEn= 0.00D+00
 Coeff-Com:  0.247D-05-0.571D-05-0.330D-04-0.657D-04-0.574D-04 0.449D-03
 Coeff-Com:  0.191D-02 0.267D-02-0.687D-02-0.267D-01-0.359D-01 0.488D-01
 Coeff-Com:  0.332D+00 0.684D+00
 Coeff:      0.247D-05-0.571D-05-0.330D-04-0.657D-04-0.574D-04 0.449D-03
 Coeff:      0.191D-02 0.267D-02-0.687D-02-0.267D-01-0.359D-01 0.488D-01
 Coeff:      0.332D+00 0.684D+00
 Gap=     0.143 Goal=   None    Shift=    0.000
 RMSDP=7.50D-09 MaxDP=7.74D-07 DE=-6.15D-10 OVMax= 3.33D-06

 Error on total polarization charges =  0.02560
 SCF Done:  E(RM062X) =  -3273.66704191     A.U. after   14 cycles
            NFock= 14  Conv=0.75D-08     -V/T= 2.1322
 KE= 2.891395009113D+03 PE=-2.504088679506D+04 EE= 1.011678688741D+04
 Leave Link  502 at Sun Oct 12 09:48:52 2025, MaxMem= 30870077440 cpu:           90551.8 elap:            1442.3
 (Enter /work/home/accqbws0vm/apprepo/gaussian/16-hy/scripts/../app/g16/l601.exe)
 Copying SCF densities to generalized density rwf, IOpCl= 0 IROHF=0.

 **********************************************************************

            Population analysis using the SCF density.

 **********************************************************************

 Orbital symmetries:
       Occupied  (A) (A) (A) (A) (A) (A) (A) (A) (A) (A) (A) (A)
                 (A) (A) (A) (A) (A) (A) (A) (A) (A) (A) (A) (A)
                 (A) (A) (A) (A) (A) (A) (A) (A) (A) (A) (A) (A)
                 (A) (A) (A) (A) (A) (A) (A) (A) (A) (A) (A) (A)
                 (A) (A) (A) (A) (A) (A) (A) (A) (A) (A) (A) (A)
                 (A) (A) (A) (A) (A) (A) (A) (A) (A) (A) (A) (A)
                 (A) (A) (A) (A) (A) (A) (A) (A) (A) (A) (A) (A)
                 (A) (A) (A) (A) (A) (A) (A) (A) (A) (A) (A) (A)
                 (A) (A) (A) (A) (A) (A) (A) (A) (A) (A) (A) (A)
                 (A) (A) (A) (A) (A) (A) (A) (A) (A) (A) (A) (A)
                 (A) (A) (A) (A) (A) (A) (A) (A) (A) (A) (A) (A)
                 (A) (A) (A) (A) (A) (A) (A) (A) (A) (A) (A) (A)
                 (A) (A) (A) (A) (A) (A) (A) (A) (A) (A) (A) (A)
                 (A) (A) (A) (A) (A) (A) (A) (A) (A) (A) (A) (A)
                 (A) (A) (A) (A) (A) (A) (A) (A) (A) (A) (A) (A)
                 (A) (A) (A) (A) (A) (A) (A) (A) (A) (A) (A) (A)
                 (A) (A) (A) (A) (A) (A) (A) (A) (A) (A) (A) (A)
                 (A) (A) (A) (A) (A) (A) (A) (A) (A) (A) (A) (A)
                 (A) (A) (A) (A)
       Virtual   (A) (A) (A) (A) (A) (A) (A) (A) (A) (A) (A) (A)
                 (A) (A) (A) (A) (A) (A) (A) (A) (A) (A) (A) (A)
                 (A) (A) (A) (A) (A) (A) (A) (A) (A) (A) (A) (A)
                 (A) (A) (A) (A) (A) (A) (A) (A) (A) (A) (A) (A)
                 (A) (A) (A) (A) (A) (A) (A) (A) (A) (A) (A) (A)
                 (A) (A) (A) (A) (A) (A) (A) (A) (A) (A) (A) (A)
                 (A) (A) (A) (A) (A) (A) (A) (A) (A) (A) (A) (A)
                 (A) (A) (A) (A) (A) (A) (A) (A) (A) (A) (A) (A)
                 (A) (A) (A) (A) (A) (A) (A) (A) (A) (A) (A) (A)
                 (A) (A) (A) (A) (A) (A) (A) (A) (A) (A) (A) (A)
                 (A) (A) (A) (A) (A) (A) (A) (A) (A) (A) (A) (A)
                 (A) (A) (A) (A) (A) (A) (A) (A) (A) (A) (A) (A)
                 (A) (A) (A) (A) (A) (A) (A) (A) (A) (A) (A) (A)
                 (A) (A) (A) (A) (A) (A) (A) (A) (A) (A) (A) (A)
                 (A) (A) (A) (A) (A) (A) (A) (A) (A) (A) (A) (A)
                 (A) (A) (A) (A) (A) (A) (A) (A) (A) (A) (A) (A)
                 (A) (A) (A) (A) (A) (A) (A) (A) (A) (A) (A) (A)
                 (A) (A) (A) (A) (A) (A) (A) (A) (A) (A) (A) (A)
                 (A) (A) (A) (A) (A) (A) (A) (A) (A) (A) (A) (A)
                 (A) (A) (A) (A) (A) (A) (A) (A) (A) (A) (A) (A)
                 (A) (A) (A) (A) (A) (A) (A) (A) (A) (A) (A) (A)
                 (A) (A) (A) (A) (A) (A) (A) (A) (A) (A) (A) (A)
                 (A) (A) (A) (A) (A) (A) (A) (A) (A) (A) (A) (A)
                 (A) (A) (A) (A) (A) (A) (A) (A) (A) (A) (A) (A)
                 (A) (A) (A) (A) (A) (A) (A) (A) (A) (A) (A) (A)
                 (A) (A) (A) (A) (A) (A) (A) (A) (A) (A) (A) (A)
                 (A) (A) (A) (A) (A) (A) (A) (A) (A) (A) (A) (A)
                 (A) (A) (A) (A) (A) (A) (A) (A) (A) (A) (A) (A)
                 (A) (A) (A) (A) (A) (A) (A) (A) (A) (A) (A) (A)
                 (A) (A) (A) (A) (A) (A) (A) (A) (A) (A) (A) (A)
                 (A) (A) (A) (A) (A) (A) (A) (A) (A) (A) (A) (A)
                 (A) (A) (A) (A) (A) (A) (A) (A) (A) (A) (A) (A)
                 (A) (A) (A) (A) (A) (A) (A) (A) (A) (A) (A) (A)
                 (A) (A) (A) (A) (A) (A) (A) (A) (A) (A) (A) (A)
                 (A) (A) (A) (A) (A) (A) (A) (A) (A) (A) (A) (A)
                 (A) (A) (A) (A) (A) (A) (A) (A) (A) (A) (A) (A)
                 (A) (A) (A) (A) (A) (A) (A) (A) (A) (A) (A) (A)
                 (A) (A) (A) (A) (A) (A) (A) (A) (A) (A) (A) (A)
                 (A) (A) (A) (A) (A) (A) (A) (A) (A) (A) (A) (A)
                 (A) (A) (A) (A) (A) (A) (A) (A) (A) (A) (A) (A)
                 (A) (A) (A) (A) (A) (A) (A) (A) (A) (A) (A) (A)
                 (A) (A) (A) (A) (A) (A) (A) (A) (A) (A) (A) (A)
                 (A) (A) (A) (A) (A) (A) (A) (A) (A) (A) (A) (A)
                 (A) (A) (A) (A) (A) (A) (A) (A) (A) (A) (A) (A)
                 (A) (A) (A) (A) (A) (A) (A) (A) (A) (A) (A) (A)
                 (A) (A) (A) (A) (A) (A) (A) (A) (A) (A) (A) (A)
                 (A) (A) (A) (A) (A) (A) (A) (A) (A) (A) (A) (A)
                 (A) (A) (A) (A) (A) (A) (A) (A) (A) (A) (A) (A)
                 (A) (A) (A) (A) (A) (A) (A) (A) (A) (A) (A) (A)
                 (A) (A) (A) (A) (A) (A) (A) (A) (A) (A) (A) (A)
                 (A) (A) (A) (A) (A) (A) (A) (A) (A) (A) (A) (A)
                 (A) (A) (A) (A) (A) (A) (A) (A) (A) (A) (A) (A)
                 (A) (A) (A) (A) (A) (A) (A) (A) (A) (A) (A) (A)
                 (A) (A) (A) (A) (A) (A) (A) (A) (A) (A) (A) (A)
                 (A) (A) (A) (A) (A) (A) (A) (A) (A) (A) (A) (A)
                 (A) (A) (A) (A) (A) (A) (A) (A) (A) (A) (A) (A)
                 (A) (A) (A) (A) (A) (A) (A) (A) (A) (A) (A) (A)
                 (A) (A) (A) (A) (A) (A) (A) (A) (A) (A) (A) (A)
                 (A) (A) (A) (A) (A) (A) (A) (A) (A) (A) (A) (A)
                 (A) (A) (A) (A) (A) (A) (A) (A) (A) (A) (A) (A)
                 (A) (A) (A) (A) (A) (A) (A) (A) (A) (A) (A) (A)
                 (A) (A) (A) (A) (A) (A) (A) (A) (A) (A) (A) (A)
                 (A) (A) (A) (A) (A) (A) (A) (A) (A) (A) (A) (A)
                 (A) (A) (A) (A) (A) (A) (A) (A) (A) (A) (A) (A)
                 (A) (A) (A) (A) (A) (A) (A) (A) (A) (A) (A) (A)
                 (A) (A) (A) (A) (A) (A) (A) (A) (A) (A) (A) (A)
                 (A) (A) (A) (A) (A) (A) (A) (A) (A) (A) (A) (A)
                 (A) (A) (A) (A) (A) (A) (A) (A) (A) (A) (A) (A)
                 (A) (A) (A) (A) (A) (A) (A) (A) (A) (A) (A) (A)
                 (A) (A) (A) (A) (A) (A) (A) (A) (A) (A) (A) (A)
                 (A) (A) (A) (A) (A) (A) (A) (A) (A) (A) (A) (A)
                 (A) (A) (A) (A) (A) (A) (A) (A) (A) (A) (A) (A)
                 (A) (A) (A) (A) (A) (A) (A) (A) (A) (A) (A) (A)
                 (A) (A) (A) (A) (A) (A) (A) (A) (A) (A) (A) (A)
                 (A) (A) (A) (A) (A) (A) (A) (A) (A) (A) (A) (A)
                 (A) (A) (A) (A) (A) (A) (A) (A) (A) (A) (A) (A)
                 (A) (A) (A) (A) (A) (A) (A) (A) (A) (A) (A) (A)
                 (A) (A) (A) (A) (A) (A) (A) (A) (A) (A) (A) (A)
                 (A) (A) (A) (A) (A) (A) (A) (A) (A) (A) (A) (A)
                 (A) (A) (A) (A) (A) (A) (A) (A) (A) (A) (A) (A)
                 (A) (A) (A) (A) (A) (A) (A) (A) (A) (A) (A) (A)
                 (A) (A) (A) (A) (A) (A) (A) (A) (A) (A) (A) (A)
                 (A) (A) (A) (A) (A) (A) (A) (A) (A) (A) (A) (A)
                 (A) (A) (A) (A) (A) (A) (A) (A) (A) (A) (A) (A)
                 (A) (A) (A) (A) (A) (A) (A) (A) (A) (A) (A) (A)
                 (A) (A) (A) (A) (A) (A) (A) (A) (A) (A) (A) (A)
                 (A) (A) (A) (A) (A) (A) (A) (A) (A) (A) (A) (A)
                 (A) (A) (A) (A) (A) (A) (A) (A) (A) (A) (A) (A)
                 (A) (A) (A) (A) (A) (A) (A) (A) (A) (A) (A) (A)
                 (A) (A) (A) (A) (A) (A) (A) (A) (A) (A) (A) (A)
                 (A) (A) (A) (A) (A) (A) (A) (A) (A) (A) (A) (A)
                 (A) (A) (A) (A) (A) (A) (A) (A) (A) (A) (A) (A)
                 (A) (A) (A) (A) (A) (A) (A) (A) (A) (A) (A) (A)
                 (A) (A) (A) (A) (A) (A) (A) (A) (A) (A) (A) (A)
                 (A) (A) (A) (A) (A) (A) (A) (A) (A) (A) (A) (A)
                 (A) (A) (A) (A) (A) (A) (A) (A) (A) (A) (A) (A)
                 (A) (A) (A) (A) (A) (A) (A) (A) (A) (A) (A) (A)
                 (A) (A) (A) (A) (A) (A) (A) (A) (A) (A) (A) (A)
                 (A) (A) (A) (A) (A) (A) (A) (A) (A) (A) (A) (A)
                 (A) (A) (A) (A) (A) (A) (A) (A) (A) (A) (A) (A)
                 (A) (A) (A) (A) (A) (A) (A) (A) (A) (A) (A) (A)
                 (A) (A) (A) (A) (A) (A) (A) (A) (A) (A) (A) (A)
                 (A) (A) (A) (A) (A) (A) (A) (A) (A) (A) (A) (A)
                 (A) (A) (A) (A) (A) (A) (A) (A) (A) (A) (A) (A)
                 (A) (A) (A) (A) (A) (A) (A) (A) (A) (A) (A) (A)
                 (A) (A) (A) (A) (A) (A) (A) (A) (A) (A) (A) (A)
                 (A) (A) (A) (A) (A) (A) (A) (A) (A) (A) (A) (A)
                 (A) (A) (A) (A) (A) (A) (A) (A) (A) (A) (A) (A)
                 (A) (A) (A) (A) (A) (A) (A) (A) (A) (A) (A) (A)
                 (A) (A) (A) (A) (A) (A) (A) (A) (A) (A) (A) (A)
                 (A) (A) (A) (A) (A) (A) (A) (A) (A) (A) (A) (A)
                 (A) (A) (A) (A) (A) (A) (A) (A) (A) (A) (A) (A)
                 (A) (A) (A) (A) (A) (A) (A) (A) (A) (A) (A) (A)
                 (A) (A) (A) (A) (A) (A) (A) (A) (A) (A) (A) (A)
                 (A) (A) (A) (A) (A) (A) (A) (A) (A) (A) (A) (A)
                 (A) (A) (A) (A) (A) (A) (A) (A) (A) (A) (A) (A)
                 (A) (A) (A) (A) (A) (A) (A) (A) (A) (A) (A) (A)
                 (A) (A) (A) (A) (A) (A) (A) (A) (A) (A) (A) (A)
                 (A) (A) (A) (A) (A) (A) (A) (A) (A) (A) (A) (A)
                 (A) (A) (A) (A) (A) (A) (A) (A) (A) (A) (A) (A)
                 (A) (A) (A) (A) (A) (A) (A) (A) (A) (A) (A) (A)
                 (A) (A) (A) (A) (A) (A) (A) (A) (A) (A) (A) (A)
                 (A) (A) (A) (A) (A) (A) (A) (A) (A) (A) (A) (A)
                 (A) (A) (A) (A) (A) (A) (A) (A) (A) (A) (A) (A)
                 (A) (A) (A) (A) (A) (A) (A) (A) (A) (A) (A) (A)
                 (A) (A) (A) (A) (A) (A) (A) (A) (A) (A) (A) (A)
                 (A) (A) (A) (A) (A) (A) (A) (A) (A) (A) (A) (A)
                 (A) (A) (A) (A) (A) (A) (A) (A) (A) (A) (A) (A)
                 (A) (A) (A) (A) (A) (A) (A) (A) (A) (A) (A) (A)
                 (A) (A) (A) (A) (A) (A) (A) (A) (A) (A) (A) (A)
                 (A) (A) (A) (A) (A) (A) (A) (A) (A) (A) (A) (A)
                 (A) (A) (A) (A) (A) (A) (A) (A) (A) (A) (A) (A)
                 (A) (A) (A) (A) (A) (A) (A) (A) (A) (A) (A) (A)
                 (A) (A) (A) (A) (A) (A) (A) (A) (A) (A) (A) (A)
                 (A) (A) (A) (A) (A) (A) (A) (A) (A) (A) (A) (A)
                 (A) (A) (A) (A) (A) (A) (A) (A) (A) (A) (A) (A)
                 (A) (A) (A) (A) (A) (A) (A) (A) (A) (A) (A) (A)
                 (A) (A) (A) (A) (A) (A) (A) (A) (A) (A) (A) (A)
                 (A) (A) (A) (A) (A) (A) (A) (A) (A) (A) (A) (A)
                 (A) (A) (A) (A) (A) (A) (A) (A) (A) (A) (A) (A)
                 (A) (A) (A) (A) (A) (A) (A) (A) (A) (A) (A) (A)
                 (A) (A) (A) (A) (A) (A) (A) (A) (A) (A) (A) (A)
                 (A) (A) (A) (A) (A) (A) (A) (A) (A) (A) (A) (A)
                 (A) (A) (A) (A) (A) (A) (A) (A) (A) (A) (A) (A)
                 (A) (A) (A) (A) (A) (A) (A) (A) (A) (A) (A) (A)
                 (A) (A) (A) (A) (A) (A) (A) (A) (A) (A) (A) (A)
                 (A) (A) (A) (A) (A) (A) (A) (A) (A) (A) (A) (A)
                 (A) (A) (A) (A) (A) (A) (A) (A) (A) (A) (A) (A)
                 (A) (A) (A) (A) (A) (A) (A) (A) (A) (A) (A) (A)
                 (A) (A) (A) (A) (A) (A) (A) (A) (A) (A) (A) (A)
                 (A) (A) (A) (A) (A) (A) (A) (A) (A) (A) (A) (A)
                 (A) (A) (A) (A) (A) (A) (A) (A) (A) (A) (A) (A)
                 (A) (A) (A) (A) (A) (A) (A) (A) (A) (A) (A) (A)
                 (A) (A) (A) (A) (A) (A) (A) (A) (A) (A) (A) (A)
                 (A) (A) (A) (A) (A) (A) (A) (A) (A) (A) (A) (A)
                 (A) (A) (A) (A) (A) (A) (A) (A) (A) (A) (A) (A)
                 (A) (A) (A) (A) (A) (A) (A) (A) (A) (A) (A) (A)
                 (A) (A) (A) (A) (A) (A) (A) (A) (A) (A) (A) (A)
                 (A) (A) (A) (A) (A) (A) (A) (A) (A) (A) (A) (A)
                 (A) (A) (A) (A) (A) (A) (A) (A) (A) (A) (A) (A)
                 (A) (A) (A) (A) (A) (A) (A) (A) (A) (A) (A) (A)
                 (A) (A) (A) (A) (A) (A) (A) (A) (A) (A) (A) (A)
                 (A) (A) (A) (A) (A) (A) (A) (A) (A) (A) (A) (A)
                 (A) (A) (A) (A) (A) (A) (A) (A) (A) (A) (A) (A)
                 (A) (A) (A) (A) (A) (A) (A) (A) (A) (A) (A) (A)
                 (A) (A) (A) (A) (A) (A) (A) (A) (A) (A) (A) (A)
                 (A) (A) (A) (A) (A) (A) (A) (A) (A) (A) (A) (A)
                 (A)
 The electronic state is 1-A.
 Alpha  occ. eigenvalues --  -25.20951 -25.20951 -19.68196 -19.68193 -19.67866
 Alpha  occ. eigenvalues --  -19.67866 -19.67530 -19.67530 -19.67281 -19.67281
 Alpha  occ. eigenvalues --  -19.67209 -19.67209 -15.01667 -15.00767 -15.00767
 Alpha  occ. eigenvalues --  -14.79944 -14.79944 -10.63470 -10.63470 -10.63033
 Alpha  occ. eigenvalues --  -10.63033 -10.62461 -10.62461 -10.62433 -10.61996
 Alpha  occ. eigenvalues --  -10.61726 -10.61726 -10.60560 -10.60558 -10.59976
 Alpha  occ. eigenvalues --  -10.59976 -10.59808 -10.59711 -10.59711 -10.59574
 Alpha  occ. eigenvalues --  -10.59574 -10.59364 -10.59364 -10.58815 -10.58815
 Alpha  occ. eigenvalues --  -10.58510 -10.58508 -10.57892 -10.57891 -10.57701
 Alpha  occ. eigenvalues --  -10.57701 -10.57474 -10.57474 -10.57045 -10.57045
 Alpha  occ. eigenvalues --  -10.56928 -10.56928 -10.54692 -10.54692  -7.14116
 Alpha  occ. eigenvalues --   -7.11784  -7.11784  -5.11165  -5.11165  -5.10078
 Alpha  occ. eigenvalues --   -5.10078  -5.10058  -5.10058  -2.08013  -2.08013
 Alpha  occ. eigenvalues --   -2.07546  -2.07545  -2.07536  -2.07536  -2.06633
 Alpha  occ. eigenvalues --   -2.06633  -2.06631  -2.06631  -1.37222  -1.36217
 Alpha  occ. eigenvalues --   -1.36191  -1.32964  -1.29706  -1.21918  -1.21918
 Alpha  occ. eigenvalues --   -1.19581  -1.19581  -1.18757  -1.17681  -1.17602
 Alpha  occ. eigenvalues --   -1.12263  -1.10450  -1.01572  -1.00445  -1.00432
 Alpha  occ. eigenvalues --   -0.96505  -0.93520  -0.93113  -0.92599  -0.92173
 Alpha  occ. eigenvalues --   -0.91756  -0.91714  -0.90549  -0.88301  -0.88214
 Alpha  occ. eigenvalues --   -0.86958  -0.84238  -0.83699  -0.83669  -0.83204
 Alpha  occ. eigenvalues --   -0.81706  -0.81414  -0.80784  -0.80245  -0.80218
 Alpha  occ. eigenvalues --   -0.78867  -0.78411  -0.76991  -0.74900  -0.73141
 Alpha  occ. eigenvalues --   -0.72078  -0.71051  -0.71002  -0.70698  -0.69292
 Alpha  occ. eigenvalues --   -0.68179  -0.68173  -0.67423  -0.66532  -0.66456
 Alpha  occ. eigenvalues --   -0.65954  -0.65101  -0.64559  -0.63691  -0.63662
 Alpha  occ. eigenvalues --   -0.63057  -0.62233  -0.62102  -0.61943  -0.61858
 Alpha  occ. eigenvalues --   -0.61707  -0.60981  -0.60930  -0.59952  -0.59649
 Alpha  occ. eigenvalues --   -0.59041  -0.58950  -0.58724  -0.58076  -0.57826
 Alpha  occ. eigenvalues --   -0.57236  -0.57222  -0.56335  -0.56216  -0.55461
 Alpha  occ. eigenvalues --   -0.54984  -0.54980  -0.54696  -0.54226  -0.53923
 Alpha  occ. eigenvalues --   -0.53702  -0.53411  -0.53281  -0.53119  -0.52363
 Alpha  occ. eigenvalues --   -0.51997  -0.51710  -0.50895  -0.50541  -0.50324
 Alpha  occ. eigenvalues --   -0.49946  -0.49933  -0.49427  -0.49095  -0.48858
 Alpha  occ. eigenvalues --   -0.48625  -0.48429  -0.47515  -0.47433  -0.47394
 Alpha  occ. eigenvalues --   -0.47257  -0.46776  -0.46498  -0.46009  -0.45459
 Alpha  occ. eigenvalues --   -0.45247  -0.45146  -0.44395  -0.44162  -0.43480
 Alpha  occ. eigenvalues --   -0.43113  -0.43011  -0.42821  -0.42601  -0.42109
 Alpha  occ. eigenvalues --   -0.41950  -0.41832  -0.41801  -0.41528  -0.41512
 Alpha  occ. eigenvalues --   -0.41345  -0.40723  -0.40660  -0.40231  -0.39962
 Alpha  occ. eigenvalues --   -0.39825  -0.39244  -0.38899  -0.38860  -0.38531
 Alpha  occ. eigenvalues --   -0.37265  -0.36808  -0.36662  -0.34678  -0.34365
 Alpha  occ. eigenvalues --   -0.34097  -0.33029  -0.32784  -0.32411  -0.31540
 Alpha  occ. eigenvalues --   -0.30448  -0.30334  -0.29081  -0.28354  -0.25151
 Alpha virt. eigenvalues --   -0.10841  -0.07713  -0.06912  -0.06014  -0.02523
 Alpha virt. eigenvalues --   -0.01255  -0.01229  -0.00316   0.00243   0.01276
 Alpha virt. eigenvalues --    0.01499   0.01777   0.03950   0.04174   0.05343
 Alpha virt. eigenvalues --    0.05713   0.07079   0.07092   0.07260   0.07456
 Alpha virt. eigenvalues --    0.07951   0.07982   0.08150   0.08531   0.08779
 Alpha virt. eigenvalues --    0.08861   0.09399   0.09642   0.10246   0.10939
 Alpha virt. eigenvalues --    0.11099   0.11486   0.11871   0.12024   0.12026
 Alpha virt. eigenvalues --    0.12530   0.12587   0.12963   0.13072   0.13360
 Alpha virt. eigenvalues --    0.13753   0.13891   0.13921   0.14138   0.14214
 Alpha virt. eigenvalues --    0.14646   0.14780   0.14811   0.14973   0.15185
 Alpha virt. eigenvalues --    0.15368   0.15508   0.15699   0.15701   0.15761
 Alpha virt. eigenvalues --    0.15796   0.15998   0.16531   0.16642   0.16800
 Alpha virt. eigenvalues --    0.17146   0.17383   0.17673   0.17740   0.17984
 Alpha virt. eigenvalues --    0.18546   0.18696   0.18928   0.19129   0.19264
 Alpha virt. eigenvalues --    0.19821   0.19919   0.20133   0.20170   0.20585
 Alpha virt. eigenvalues --    0.20660   0.20922   0.21356   0.21601   0.21641
 Alpha virt. eigenvalues --    0.21747   0.21841   0.21865   0.22339   0.22453
 Alpha virt. eigenvalues --    0.22578   0.22873   0.22930   0.23005   0.23454
 Alpha virt. eigenvalues --    0.23603   0.23688   0.24073   0.24160   0.24419
 Alpha virt. eigenvalues --    0.24443   0.24711   0.24940   0.25185   0.25188
 Alpha virt. eigenvalues --    0.25553   0.25645   0.26042   0.26310   0.26526
 Alpha virt. eigenvalues --    0.26780   0.26926   0.27063   0.27279   0.27494
 Alpha virt. eigenvalues --    0.28056   0.28230   0.28464   0.28832   0.28965
 Alpha virt. eigenvalues --    0.29174   0.29320   0.29560   0.29815   0.29873
 Alpha virt. eigenvalues --    0.30335   0.30381   0.31046   0.31046   0.31272
 Alpha virt. eigenvalues --    0.31343   0.31395   0.31636   0.31750   0.31851
 Alpha virt. eigenvalues --    0.32032   0.32370   0.32455   0.32465   0.32556
 Alpha virt. eigenvalues --    0.32755   0.33398   0.33667   0.33715   0.33823
 Alpha virt. eigenvalues --    0.33930   0.34126   0.34260   0.34282   0.34668
 Alpha virt. eigenvalues --    0.34744   0.34927   0.35122   0.35136   0.35566
 Alpha virt. eigenvalues --    0.35580   0.35860   0.36021   0.36337   0.36602
 Alpha virt. eigenvalues --    0.36689   0.36812   0.36904   0.37222   0.37530
 Alpha virt. eigenvalues --    0.37681   0.37809   0.37931   0.38003   0.38249
 Alpha virt. eigenvalues --    0.38264   0.38705   0.38787   0.39107   0.39186
 Alpha virt. eigenvalues --    0.39464   0.39484   0.39828   0.40436   0.40518
 Alpha virt. eigenvalues --    0.40576   0.40835   0.40945   0.41107   0.41264
 Alpha virt. eigenvalues --    0.41602   0.41760   0.42010   0.42132   0.42351
 Alpha virt. eigenvalues --    0.42497   0.42789   0.42970   0.42983   0.43080
 Alpha virt. eigenvalues --    0.43480   0.43611   0.43780   0.43885   0.44301
 Alpha virt. eigenvalues --    0.44506   0.44790   0.44792   0.44953   0.45466
 Alpha virt. eigenvalues --    0.45480   0.45730   0.46258   0.46398   0.46457
 Alpha virt. eigenvalues --    0.46622   0.46825   0.46870   0.46955   0.47437
 Alpha virt. eigenvalues --    0.47554   0.47640   0.47810   0.48028   0.48110
 Alpha virt. eigenvalues --    0.48199   0.48485   0.48641   0.48792   0.48997
 Alpha virt. eigenvalues --    0.49084   0.49292   0.49488   0.49601   0.49764
 Alpha virt. eigenvalues --    0.50074   0.50074   0.50438   0.50479   0.50596
 Alpha virt. eigenvalues --    0.50730   0.51130   0.51395   0.51686   0.51849
 Alpha virt. eigenvalues --    0.51975   0.52053   0.52173   0.52283   0.52389
 Alpha virt. eigenvalues --    0.52558   0.52916   0.52999   0.53212   0.53507
 Alpha virt. eigenvalues --    0.53554   0.53611   0.54127   0.54566   0.54702
 Alpha virt. eigenvalues --    0.54758   0.54956   0.55752   0.55862   0.55885
 Alpha virt. eigenvalues --    0.56089   0.56461   0.56778   0.56865   0.57258
 Alpha virt. eigenvalues --    0.57652   0.57688   0.57740   0.58002   0.58478
 Alpha virt. eigenvalues --    0.58592   0.58678   0.58712   0.58740   0.59110
 Alpha virt. eigenvalues --    0.59416   0.59483   0.59972   0.60323   0.60374
 Alpha virt. eigenvalues --    0.60461   0.60613   0.60849   0.60878   0.61309
 Alpha virt. eigenvalues --    0.61915   0.62297   0.62376   0.62670   0.63158
 Alpha virt. eigenvalues --    0.63195   0.63475   0.63689   0.63938   0.64152
 Alpha virt. eigenvalues --    0.64235   0.64265   0.64554   0.64727   0.64970
 Alpha virt. eigenvalues --    0.64991   0.65061   0.65533   0.65678   0.65960
 Alpha virt. eigenvalues --    0.66154   0.66292   0.66453   0.66655   0.67101
 Alpha virt. eigenvalues --    0.67292   0.67385   0.67816   0.67866   0.68036
 Alpha virt. eigenvalues --    0.68219   0.68346   0.68377   0.68657   0.68827
 Alpha virt. eigenvalues --    0.68977   0.69244   0.69332   0.69427   0.69908
 Alpha virt. eigenvalues --    0.69941   0.70208   0.70275   0.70675   0.70804
 Alpha virt. eigenvalues --    0.71079   0.71095   0.71568   0.71989   0.72041
 Alpha virt. eigenvalues --    0.72455   0.72738   0.72793   0.73421   0.73653
 Alpha virt. eigenvalues --    0.73704   0.73936   0.74211   0.74505   0.74719
 Alpha virt. eigenvalues --    0.74835   0.75150   0.75242   0.75387   0.75539
 Alpha virt. eigenvalues --    0.75818   0.76424   0.76550   0.76751   0.76801
 Alpha virt. eigenvalues --    0.76876   0.77039   0.77364   0.78196   0.78522
 Alpha virt. eigenvalues --    0.78539   0.78675   0.78923   0.79071   0.79463
 Alpha virt. eigenvalues --    0.79724   0.79790   0.80122   0.80420   0.80619
 Alpha virt. eigenvalues --    0.80717   0.81011   0.81279   0.81289   0.81727
 Alpha virt. eigenvalues --    0.81848   0.82434   0.82851   0.83081   0.83203
 Alpha virt. eigenvalues --    0.83388   0.83467   0.83843   0.83872   0.84724
 Alpha virt. eigenvalues --    0.85205   0.85414   0.85519   0.85683   0.85842
 Alpha virt. eigenvalues --    0.85893   0.86549   0.87165   0.87555   0.87841
 Alpha virt. eigenvalues --    0.87857   0.88307   0.88400   0.88713   0.88726
 Alpha virt. eigenvalues --    0.88812   0.89103   0.89527   0.89625   0.90069
 Alpha virt. eigenvalues --    0.90308   0.90706   0.90706   0.91220   0.91273
 Alpha virt. eigenvalues --    0.91668   0.92006   0.92067   0.92389   0.92647
 Alpha virt. eigenvalues --    0.92779   0.93052   0.93252   0.93287   0.93586
 Alpha virt. eigenvalues --    0.93639   0.94146   0.94196   0.94456   0.94507
 Alpha virt. eigenvalues --    0.94555   0.95011   0.95052   0.95406   0.95695
 Alpha virt. eigenvalues --    0.95717   0.95896   0.96279   0.96551   0.96958
 Alpha virt. eigenvalues --    0.97198   0.97229   0.97324   0.97405   0.98127
 Alpha virt. eigenvalues --    0.98162   0.98283   0.98524   0.98641   0.98839
 Alpha virt. eigenvalues --    0.98969   0.99249   0.99258   0.99602   1.00161
 Alpha virt. eigenvalues --    1.00198   1.00712   1.01031   1.01709   1.01781
 Alpha virt. eigenvalues --    1.02079   1.02203   1.02481   1.02533   1.02787
 Alpha virt. eigenvalues --    1.03446   1.03514   1.03626   1.03685   1.04030
 Alpha virt. eigenvalues --    1.04412   1.04619   1.05029   1.05320   1.05518
 Alpha virt. eigenvalues --    1.05552   1.05835   1.06414   1.06453   1.06763
 Alpha virt. eigenvalues --    1.06801   1.07289   1.07369   1.07590   1.07739
 Alpha virt. eigenvalues --    1.07894   1.08311   1.08438   1.09061   1.09078
 Alpha virt. eigenvalues --    1.09181   1.09261   1.09363   1.09941   1.10334
 Alpha virt. eigenvalues --    1.10429   1.10599   1.10753   1.10841   1.11110
 Alpha virt. eigenvalues --    1.11523   1.11587   1.12275   1.12448   1.12505
 Alpha virt. eigenvalues --    1.13024   1.13540   1.13627   1.14261   1.14267
 Alpha virt. eigenvalues --    1.14648   1.15064   1.15549   1.15558   1.15675
 Alpha virt. eigenvalues --    1.15915   1.16576   1.16578   1.16911   1.17535
 Alpha virt. eigenvalues --    1.17790   1.17891   1.17925   1.17984   1.18372
 Alpha virt. eigenvalues --    1.18654   1.19368   1.19408   1.19659   1.20089
 Alpha virt. eigenvalues --    1.20124   1.20531   1.21088   1.21135   1.21452
 Alpha virt. eigenvalues --    1.21561   1.21788   1.22156   1.22185   1.22363
 Alpha virt. eigenvalues --    1.22945   1.23143   1.23319   1.23839   1.23862
 Alpha virt. eigenvalues --    1.24348   1.24399   1.24587   1.24919   1.25369
 Alpha virt. eigenvalues --    1.25846   1.25978   1.26153   1.26686   1.26938
 Alpha virt. eigenvalues --    1.27314   1.27538   1.27700   1.28285   1.28290
 Alpha virt. eigenvalues --    1.28895   1.28996   1.29338   1.29544   1.29846
 Alpha virt. eigenvalues --    1.30676   1.30820   1.31063   1.31227   1.31634
 Alpha virt. eigenvalues --    1.31951   1.31975   1.32156   1.32180   1.32529
 Alpha virt. eigenvalues --    1.33004   1.33046   1.33633   1.33837   1.34241
 Alpha virt. eigenvalues --    1.34648   1.34648   1.34986   1.35374   1.35465
 Alpha virt. eigenvalues --    1.35473   1.35666   1.35788   1.36287   1.36738
 Alpha virt. eigenvalues --    1.36957   1.37392   1.37702   1.38543   1.38865
 Alpha virt. eigenvalues --    1.38907   1.39512   1.39943   1.39971   1.40098
 Alpha virt. eigenvalues --    1.40146   1.40647   1.40952   1.40968   1.41429
 Alpha virt. eigenvalues --    1.41712   1.42179   1.42721   1.43036   1.43208
 Alpha virt. eigenvalues --    1.43259   1.43306   1.44239   1.44326   1.44467
 Alpha virt. eigenvalues --    1.44736   1.45166   1.45339   1.45409   1.45539
 Alpha virt. eigenvalues --    1.45690   1.46087   1.46098   1.46585   1.46747
 Alpha virt. eigenvalues --    1.46755   1.46914   1.47398   1.47607   1.47881
 Alpha virt. eigenvalues --    1.48177   1.48351   1.48434   1.48657   1.48674
 Alpha virt. eigenvalues --    1.49217   1.49333   1.49426   1.50177   1.50207
 Alpha virt. eigenvalues --    1.50703   1.50955   1.51005   1.51545   1.51779
 Alpha virt. eigenvalues --    1.52119   1.52320   1.52388   1.52542   1.53124
 Alpha virt. eigenvalues --    1.53181   1.53277   1.53523   1.53836   1.54016
 Alpha virt. eigenvalues --    1.54531   1.54696   1.54811   1.55107   1.55291
 Alpha virt. eigenvalues --    1.55783   1.56194   1.56403   1.56409   1.56731
 Alpha virt. eigenvalues --    1.57046   1.57112   1.57408   1.57538   1.57599
 Alpha virt. eigenvalues --    1.58037   1.58134   1.58429   1.58581   1.58862
 Alpha virt. eigenvalues --    1.58986   1.59242   1.59597   1.59637   1.59929
 Alpha virt. eigenvalues --    1.60335   1.60623   1.60924   1.61182   1.61430
 Alpha virt. eigenvalues --    1.61436   1.61601   1.62018   1.62202   1.62672
 Alpha virt. eigenvalues --    1.62843   1.63100   1.63505   1.63518   1.64180
 Alpha virt. eigenvalues --    1.64554   1.65069   1.65214   1.65438   1.65755
 Alpha virt. eigenvalues --    1.65775   1.66504   1.66906   1.67133   1.67356
 Alpha virt. eigenvalues --    1.67379   1.68099   1.68185   1.68431   1.68704
 Alpha virt. eigenvalues --    1.69040   1.69491   1.69606   1.69843   1.70073
 Alpha virt. eigenvalues --    1.70234   1.71456   1.71641   1.71930   1.72076
 Alpha virt. eigenvalues --    1.72594   1.72903   1.73084   1.73467   1.73702
 Alpha virt. eigenvalues --    1.74302   1.74656   1.75642   1.75987   1.76088
 Alpha virt. eigenvalues --    1.76894   1.77144   1.77770   1.78639   1.78802
 Alpha virt. eigenvalues --    1.79007   1.79575   1.79675   1.80169   1.80365
 Alpha virt. eigenvalues --    1.80722   1.80783   1.81443   1.81778   1.81806
 Alpha virt. eigenvalues --    1.82159   1.82326   1.82935   1.83078   1.83361
 Alpha virt. eigenvalues --    1.83611   1.83974   1.84202   1.84956   1.85074
 Alpha virt. eigenvalues --    1.85566   1.85990   1.86075   1.86336   1.86759
 Alpha virt. eigenvalues --    1.87273   1.87545   1.87801   1.87884   1.88545
 Alpha virt. eigenvalues --    1.89059   1.89505   1.89560   1.89929   1.90155
 Alpha virt. eigenvalues --    1.90288   1.91655   1.92020   1.92593   1.92777
 Alpha virt. eigenvalues --    1.93005   1.93051   1.94110   1.94164   1.94465
 Alpha virt. eigenvalues --    1.94668   1.94891   1.95050   1.95508   1.96706
 Alpha virt. eigenvalues --    1.96747   1.97147   1.97365   1.97408   1.98058
 Alpha virt. eigenvalues --    1.98554   1.98870   1.98927   1.99759   2.00015
 Alpha virt. eigenvalues --    2.00288   2.00866   2.00898   2.01511   2.01566
 Alpha virt. eigenvalues --    2.02476   2.02513   2.03375   2.03417   2.03962
 Alpha virt. eigenvalues --    2.04059   2.05328   2.05708   2.05764   2.05968
 Alpha virt. eigenvalues --    2.06122   2.07048   2.07145   2.07395   2.07683
 Alpha virt. eigenvalues --    2.08758   2.09357   2.09687   2.09933   2.10426
 Alpha virt. eigenvalues --    2.11231   2.11453   2.11864   2.12068   2.12303
 Alpha virt. eigenvalues --    2.12563   2.12847   2.13936   2.14087   2.14293
 Alpha virt. eigenvalues --    2.14584   2.15311   2.15661   2.16093   2.16459
 Alpha virt. eigenvalues --    2.16487   2.16885   2.17117   2.17406   2.17599
 Alpha virt. eigenvalues --    2.18176   2.18561   2.19062   2.19444   2.19697
 Alpha virt. eigenvalues --    2.19845   2.20385   2.20692   2.20957   2.21345
 Alpha virt. eigenvalues --    2.21378   2.21867   2.22111   2.22663   2.22860
 Alpha virt. eigenvalues --    2.23422   2.23719   2.23893   2.24695   2.24860
 Alpha virt. eigenvalues --    2.25740   2.25892   2.26138   2.26210   2.27091
 Alpha virt. eigenvalues --    2.27474   2.27721   2.27975   2.28367   2.28475
 Alpha virt. eigenvalues --    2.29036   2.29669   2.29697   2.30149   2.30241
 Alpha virt. eigenvalues --    2.30361   2.31390   2.31661   2.31792   2.32166
 Alpha virt. eigenvalues --    2.32520   2.32819   2.32961   2.35177   2.35264
 Alpha virt. eigenvalues --    2.36483   2.37147   2.37581   2.37811   2.37882
 Alpha virt. eigenvalues --    2.38481   2.38577   2.38891   2.39414   2.40752
 Alpha virt. eigenvalues --    2.41297   2.41405   2.41704   2.43033   2.43470
 Alpha virt. eigenvalues --    2.44228   2.44528   2.44738   2.45065   2.46346
 Alpha virt. eigenvalues --    2.47025   2.47156   2.47295   2.47469   2.48134
 Alpha virt. eigenvalues --    2.48825   2.49389   2.49551   2.49846   2.50727
 Alpha virt. eigenvalues --    2.50891   2.51098   2.51410   2.51973   2.52503
 Alpha virt. eigenvalues --    2.53450   2.53764   2.54506   2.55342   2.55671
 Alpha virt. eigenvalues --    2.55700   2.56235   2.56355   2.56541   2.57120
 Alpha virt. eigenvalues --    2.57268   2.57878   2.57954   2.58621   2.59158
 Alpha virt. eigenvalues --    2.59190   2.59337   2.59758   2.60139   2.60512
 Alpha virt. eigenvalues --    2.60873   2.61673   2.62017   2.62209   2.62817
 Alpha virt. eigenvalues --    2.63154   2.63407   2.63988   2.64947   2.64997
 Alpha virt. eigenvalues --    2.65297   2.66012   2.66376   2.66628   2.67313
 Alpha virt. eigenvalues --    2.67446   2.68006   2.68892   2.69326   2.69635
 Alpha virt. eigenvalues --    2.69958   2.70117   2.70149   2.70929   2.71073
 Alpha virt. eigenvalues --    2.71409   2.71982   2.72019   2.72053   2.72376
 Alpha virt. eigenvalues --    2.72416   2.72828   2.73068   2.73106   2.73191
 Alpha virt. eigenvalues --    2.73495   2.74055   2.74415   2.74454   2.74686
 Alpha virt. eigenvalues --    2.74705   2.75106   2.75323   2.75783   2.76361
 Alpha virt. eigenvalues --    2.76760   2.76868   2.76925   2.77538   2.77852
 Alpha virt. eigenvalues --    2.78197   2.79128   2.79221   2.79584   2.80039
 Alpha virt. eigenvalues --    2.80054   2.80128   2.81208   2.81233   2.81338
 Alpha virt. eigenvalues --    2.81494   2.81662   2.81874   2.81929   2.82487
 Alpha virt. eigenvalues --    2.82773   2.82825   2.83065   2.83138   2.83321
 Alpha virt. eigenvalues --    2.83790   2.84371   2.84466   2.84683   2.84809
 Alpha virt. eigenvalues --    2.85142   2.85445   2.85803   2.86167   2.86281
 Alpha virt. eigenvalues --    2.86589   2.86675   2.87122   2.87258   2.87538
 Alpha virt. eigenvalues --    2.87676   2.87784   2.87844   2.88267   2.88541
 Alpha virt. eigenvalues --    2.88740   2.88862   2.89105   2.89488   2.89990
 Alpha virt. eigenvalues --    2.90012   2.90491   2.90958   2.91474   2.91659
[...]
 Alpha virt. eigenvalues --    3.61037   3.61096   3.61783   3.61958   3.62157
 Alpha virt. eigenvalues --    3.62201   3.62640   3.63283   3.63474   3.63575
 Alpha virt. eigenvalues --    3.64081   3.64248   3.64355   3.65101   3.65316
 Alpha virt. eigenvalues --    3.65587   3.66068   3.66629   3.66900   3.66998
 Alpha virt. eigenvalues --    3.67014   3.68284   3.68680   3.69072   3.69300
 Alpha virt. eigenvalues --    3.69752   3.69822   3.69911   3.69979   3.70351
 Alpha virt. eigenvalues --    3.70834   3.71795   3.71811   3.72026   3.72128
 Alpha virt. eigenvalues --    3.72466   3.72642   3.72868   3.73342   3.73560
 Alpha virt. eigenvalues --    3.74629   3.75517   3.75603   3.75929   3.75936
 Alpha virt. eigenvalues --    3.76575   3.76723   3.76873   3.77084   3.77798
 Alpha virt. eigenvalues --    3.77823   3.77940   3.78098   3.78147   3.78901
 Alpha virt. eigenvalues --    3.79060   3.79667   3.79955   3.80068   3.80326
 Alpha virt. eigenvalues --    3.81046   3.81165   3.81888   3.82196   3.82216
 Alpha virt. eigenvalues --    3.83244   3.83252   3.83606   3.83825   3.84252
 Alpha virt. eigenvalues --    3.85183   3.85660   3.86274   3.87610   3.87638
 Alpha virt. eigenvalues --    3.87878   3.88270   3.88679   3.89159   3.89317
 Alpha virt. eigenvalues --    3.89417   3.89430   3.89796   3.90021   3.90207
 Alpha virt. eigenvalues --    3.91118   3.91171   3.91431   3.91958   3.92212
 Alpha virt. eigenvalues --    3.92397   3.92519   3.92676   3.92747   3.92885
 Alpha virt. eigenvalues --    3.93132   3.93612   3.93973   3.94123   3.94272
 Alpha virt. eigenvalues --    3.94809   3.95142   3.95148   3.95317   3.95441
 Alpha virt. eigenvalues --    3.95864   3.95956   3.96151   3.96449   3.96725
 Alpha virt. eigenvalues --    3.98071   3.98363   3.98931   3.99019   3.99202
 Alpha virt. eigenvalues --    3.99356   4.00146   4.00162   4.00504   4.00733
 Alpha virt. eigenvalues --    4.00987   4.01088   4.01991   4.02041   4.02936
 Alpha virt. eigenvalues --    4.03131   4.03135   4.03497   4.03610   4.04025
 Alpha virt. eigenvalues --    4.04576   4.04622   4.04994   4.05291   4.05409
 Alpha virt. eigenvalues --    4.05769   4.05779   4.05942   4.06149   4.06931
 Alpha virt. eigenvalues --    4.06948   4.07208   4.07376   4.07444   4.08024
 Alpha virt. eigenvalues --    4.08287   4.08856   4.09265   4.09421   4.09564
 Alpha virt. eigenvalues --    4.09722   4.09744   4.10661   4.10880   4.10935
 Alpha virt. eigenvalues --    4.11310   4.11496   4.12211   4.12277   4.12407
 Alpha virt. eigenvalues --    4.13053   4.13922   4.13951   4.14235   4.14545
 Alpha virt. eigenvalues --    4.14950   4.15295   4.15455   4.15698   4.15909
 Alpha virt. eigenvalues --    4.16246   4.16325   4.16638   4.17129   4.17419
 Alpha virt. eigenvalues --    4.17422   4.17510   4.17689   4.18268   4.18532
 Alpha virt. eigenvalues --    4.18776   4.19026   4.19199   4.19582   4.19596
 Alpha virt. eigenvalues --    4.19993   4.20175   4.21432   4.21543   4.22022
 Alpha virt. eigenvalues --    4.22204   4.22450   4.22671   4.23000   4.23131
 Alpha virt. eigenvalues --    4.24138   4.24690   4.25159   4.25200   4.25487
 Alpha virt. eigenvalues --    4.25820   4.26209   4.26685   4.26710   4.27582
 Alpha virt. eigenvalues --    4.27617   4.27780   4.28360   4.29050   4.29730
 Alpha virt. eigenvalues --    4.30289   4.31181   4.31462   4.31590   4.31929
 Alpha virt. eigenvalues --    4.32102   4.32764   4.32915   4.33819   4.34206
 Alpha virt. eigenvalues --    4.34980   4.35396   4.36239   4.36791   4.37252
 Alpha virt. eigenvalues --    4.37919   4.38528   4.38719   4.39470   4.40027
 Alpha virt. eigenvalues --    4.40185   4.41088   4.41947   4.42295   4.43418
 Alpha virt. eigenvalues --    4.43518   4.43805   4.44693   4.44968   4.45200
 Alpha virt. eigenvalues --    4.45817   4.46739   4.46998   4.47236   4.47503
 Alpha virt. eigenvalues --    4.47556   4.47786   4.47979   4.48074   4.48265
 Alpha virt. eigenvalues --    4.48413   4.48597   4.49061   4.49088   4.49459
 Alpha virt. eigenvalues --    4.49740   4.50488   4.50543   4.51645   4.52540
 Alpha virt. eigenvalues --    4.52650   4.52999   4.53124   4.53929   4.54804
 Alpha virt. eigenvalues --    4.55357   4.55694   4.56616   4.56973   4.57028
 Alpha virt. eigenvalues --    4.57526   4.57780   4.58568   4.59084   4.59359
 Alpha virt. eigenvalues --    4.60388   4.61414   4.61559   4.61934   4.61976
 Alpha virt. eigenvalues --    4.62915   4.63177   4.63903   4.63992   4.64242
 Alpha virt. eigenvalues --    4.64517   4.64671   4.65434   4.65542   4.65614
 Alpha virt. eigenvalues --    4.66462   4.66553   4.68355   4.68483   4.68904
 Alpha virt. eigenvalues --    4.70709   4.70958   4.71404   4.71419   4.71786
 Alpha virt. eigenvalues --    4.72571   4.73968   4.74918   4.75244   4.75514
 Alpha virt. eigenvalues --    4.75994   4.76396   4.77248   4.77635   4.77877
 Alpha virt. eigenvalues --    4.78513   4.78768   4.79263   4.79445   4.80057
 Alpha virt. eigenvalues --    4.80143   4.80947   4.81612   4.81825   4.82387
 Alpha virt. eigenvalues --    4.82461   4.83171   4.83208   4.83831   4.84076
 Alpha virt. eigenvalues --    4.84165   4.85562   4.85612   4.86057   4.86326
 Alpha virt. eigenvalues --    4.87079   4.87707   4.87888   4.88887   4.89367
 Alpha virt. eigenvalues --    4.90339   4.90369   4.91221   4.91281   4.91732
 Alpha virt. eigenvalues --    4.91917   4.92308   4.92843   4.93061   4.93071
 Alpha virt. eigenvalues --    4.93425   4.94020   4.94303   4.95293   4.95875
 Alpha virt. eigenvalues --    4.96103   4.96185   4.96504   4.97572   4.97879
 Alpha virt. eigenvalues --    4.98007   4.98843   4.99304   4.99650   4.99658
 Alpha virt. eigenvalues --    4.99788   5.00230   5.00497   5.00706   5.01431
 Alpha virt. eigenvalues --    5.03629   5.04258   5.04860   5.04977   5.05286
 Alpha virt. eigenvalues --    5.05300   5.05586   5.05772   5.06117   5.07324
 Alpha virt. eigenvalues --    5.07542   5.07959   5.07969   5.08167   5.08914
 Alpha virt. eigenvalues --    5.09848   5.10117   5.10193   5.10205   5.10617
 Alpha virt. eigenvalues --    5.11070   5.11510   5.11836   5.11867   5.13145
 Alpha virt. eigenvalues --    5.13866   5.14326   5.14630   5.14967   5.14982
 Alpha virt. eigenvalues --    5.15132   5.15701   5.16124   5.16614   5.16745
 Alpha virt. eigenvalues --    5.17061   5.17549   5.17624   5.18054   5.18118
 Alpha virt. eigenvalues --    5.18510   5.18632   5.18895   5.19319   5.19874
 Alpha virt. eigenvalues --    5.20237   5.20237   5.20538   5.21636   5.21664
 Alpha virt. eigenvalues --    5.21716   5.21716   5.22475   5.23075   5.23841
 Alpha virt. eigenvalues --    5.24818   5.24843   5.27028   5.27454   5.27781
 Alpha virt. eigenvalues --    5.28078   5.28675   5.29038   5.29295   5.29617
 Alpha virt. eigenvalues --    5.29797   5.30134   5.30174   5.30510   5.31298
 Alpha virt. eigenvalues --    5.31329   5.32621   5.33574   5.33728   5.34053
 Alpha virt. eigenvalues --    5.34664   5.35171   5.35479   5.36026   5.36804
 Alpha virt. eigenvalues --    5.36893   5.37032   5.38130   5.38205   5.38524
 Alpha virt. eigenvalues --    5.38726   5.39712   5.40226   5.40251   5.40271
 Alpha virt. eigenvalues --    5.41431   5.41524   5.41959   5.42024   5.43870
 Alpha virt. eigenvalues --    5.43932   5.44777   5.45088   5.45105   5.46055
 Alpha virt. eigenvalues --    5.46305   5.46389   5.48947   5.49059   5.49070
 Alpha virt. eigenvalues --    5.49471   5.50506   5.50522   5.51319   5.51451
 Alpha virt. eigenvalues --    5.51808   5.52690   5.52729   5.52990   5.53653
 Alpha virt. eigenvalues --    5.54451   5.54451   5.55233   5.56811   5.57206
 Alpha virt. eigenvalues --    5.57238   5.57857   5.58401   5.58607   5.58879
 Alpha virt. eigenvalues --    5.60019   5.60921   5.61010   5.61417   5.62447
 Alpha virt. eigenvalues --    5.63008   5.63018   5.65761   5.65798   5.67350
 Alpha virt. eigenvalues --    5.68218   5.69086   5.69501   5.71595   5.71663
 Alpha virt. eigenvalues --    5.72157   5.74521   5.75448   5.75476   5.77354
 Alpha virt. eigenvalues --    5.79543   5.79729   5.81526   5.82228   5.82398
 Alpha virt. eigenvalues --    5.82574   5.83987   5.88566   5.89050   5.89519
 Alpha virt. eigenvalues --    5.89563   5.90077   5.91082   5.91873   5.92401
 Alpha virt. eigenvalues --    5.92893   5.96947   5.96951   5.97237   5.98632
 Alpha virt. eigenvalues --    6.01619   6.01771   6.03525   6.06280   6.06308
 Alpha virt. eigenvalues --    6.07853   6.14167   6.14659   6.21051   6.22140
 Alpha virt. eigenvalues --    6.23705   6.25338   6.25420   6.25443   6.27014
 Alpha virt. eigenvalues --    6.27098   6.27553   6.27589   6.28070   6.30953
 Alpha virt. eigenvalues --    6.32457   6.35328   6.35777   6.36363   6.38504
 Alpha virt. eigenvalues --    6.40731   6.41130   6.41671   6.43049   6.43061
 Alpha virt. eigenvalues --    6.43155   6.44822   6.44858   6.45259   6.45315
 Alpha virt. eigenvalues --    6.46101   6.46150   6.66805   6.66814   6.68880
 Alpha virt. eigenvalues --    6.69343   6.71459   6.71460   6.75362   6.75657
 Alpha virt. eigenvalues --    6.75686   6.78056   6.78247   6.80722   6.83091
 Alpha virt. eigenvalues --    6.83681   6.84424   6.86307   6.86523   6.87443
 Alpha virt. eigenvalues --    6.88159   6.88190   6.89403   6.90376   6.91042
 Alpha virt. eigenvalues --    6.91238   6.93693   6.93833   6.93842   6.94581
 Alpha virt. eigenvalues --    6.96820   6.98703   6.98710   6.99805   7.05004
 Alpha virt. eigenvalues --    7.07720   7.07920   7.08332   7.11787   7.17190
 Alpha virt. eigenvalues --    7.20742   7.21731   7.22236   7.23055   7.24131
 Alpha virt. eigenvalues --    7.25990   7.26102   7.26502   7.27540   7.27567
 Alpha virt. eigenvalues --    7.29667   7.29711   7.33208   7.33610   7.34656
 Alpha virt. eigenvalues --    7.38024   7.38303   7.40532   7.40945   7.45002
 Alpha virt. eigenvalues --    7.45181   7.48105   7.50663   7.53801   7.53996
 Alpha virt. eigenvalues --    8.46231   8.46352   8.57046   8.60467   8.82718
 Alpha virt. eigenvalues --    8.89219   8.91125   8.92593   8.94510   9.01415
 Alpha virt. eigenvalues --   15.86481  22.74174  22.74685  22.75955  22.76342
 Alpha virt. eigenvalues --   22.97455  23.02622  23.03201  23.05217  23.08181
 Alpha virt. eigenvalues --   23.14426  23.14981  23.16981  23.17530  23.17821
 Alpha virt. eigenvalues --   23.20228  23.25055  23.25202  23.27626  23.27765
 Alpha virt. eigenvalues --   23.29795  23.29933  23.34395  23.34659  23.39218
 Alpha virt. eigenvalues --   23.48067  23.52529  23.62290  23.62570  23.62861
 Alpha virt. eigenvalues --   23.66828  23.67269  23.73635  23.78987  23.83729
 Alpha virt. eigenvalues --   23.95186  23.95224  24.15540  32.59250  32.59630
 Alpha virt. eigenvalues --   32.60463  33.11064  33.27999  34.48067  34.48186
 Alpha virt. eigenvalues --   34.62521  34.62807  34.89758  34.89776  42.92991
 Alpha virt. eigenvalues --   42.93031  44.16341  44.18833  44.20561  44.24893
 Alpha virt. eigenvalues --   44.25102  44.25451  44.38228  44.38313  44.64363
 Alpha virt. eigenvalues --   44.64417  57.39220  57.60356 117.59110 117.59122
          Condensed to atoms (all electrons):
 Mulliken charges:
               1
     1  C   -0.265341
     2  O   -0.282881
     3  C    0.200646
     4  C    0.170899
     5  O   -0.291834
     6  C   -0.261221
     7  C   -0.075018
     8  C   -0.091919
     9  N    0.458764
    10  O   -0.368084
    11  O   -0.339138
    12  C    0.054908
    13  C   -0.158453
    14  C   -0.194098
    15  C    0.106881
    16  C    0.025330
    17  I   -0.041256
    18  C    0.012983
    19  C   -0.428030
    20  C    0.109709
    21  C    0.152967
    22  C   -0.306655
    23  C   -0.150119
    24  C   -0.040467
    25  C   -0.026403
    26  N    0.494541
    27  O   -0.364790
    28  O   -0.364789
    29  C   -0.040457
    30  C   -0.150164
    31  C    0.109685
    32  C    0.013029
    33  C   -0.428055
    34  C    0.025297
    35  I   -0.041253
    36  C    0.106897
    37  C   -0.194112
    38  C   -0.158492
    39  C    0.054925
    40  C   -0.127334
    41  C    0.200632
    42  O   -0.282883
    43  C   -0.265343
    44  C    0.170898
    45  O   -0.291834
    46  C   -0.261222
    47  C   -0.075018
    48  C   -0.091897
    49  N    0.458761
    50  O   -0.368089
    51  O   -0.339130
    52  N   -0.058713
    53  B    0.315020
    54  F   -0.330306
    55  F   -0.330322
    56  N   -0.058735
    57  C   -0.127327
    58  H    0.155349
    59  H    0.154566
    60  H    0.157039
    61  H    0.154368
    62  H    0.152760
    63  H    0.152977
    64  H    0.174418
    65  H    0.151040
    66  H    0.155451
    67  H    0.178040
    68  H    0.134770
    69  H    0.162008
    70  H    0.183501
    71  H    0.200237
    72  H    0.200238
    73  H    0.183513
    74  H    0.162007
    75  H    0.178041
    76  H    0.134781
    77  H    0.155442
    78  H    0.151059
    79  H    0.147666
    80  H    0.157043
    81  H    0.155346
    82  H    0.154566
    83  H    0.152762
    84  H    0.152977
    85  H    0.154368
    86  H    0.174416
    87  H    0.147659
 Sum of Mulliken charges =  -0.00000
 Mulliken charges with hydrogens summed into heavy atoms:
               1
     1  C    0.201613
     2  O   -0.282881
     3  C    0.200646
     4  C    0.170899
     5  O   -0.291834
     6  C    0.198884
     7  C    0.099400
     8  C   -0.091919
     9  N    0.458764
    10  O   -0.368084
    11  O   -0.339138
    12  C    0.054908
    13  C   -0.007413
    14  C   -0.038647
    15  C    0.106881
    16  C    0.025330
    17  I   -0.041256
    18  C    0.012983
    19  C    0.046789
    20  C    0.109709
    21  C    0.152967
    22  C   -0.306655
    23  C    0.033382
    24  C    0.159770
    25  C   -0.026403
    26  N    0.494541
    27  O   -0.364790
    28  O   -0.364789
    29  C    0.159781
    30  C    0.033349
    31  C    0.109685
    32  C    0.013029
    33  C    0.046775
    34  C    0.025297
    35  I   -0.041253
    36  C    0.106897
    37  C   -0.038670
    38  C   -0.007432
    39  C    0.054925
    40  C    0.020332
    41  C    0.200632
    42  O   -0.282883
    43  C    0.201612
    44  C    0.170898
    45  O   -0.291834
    46  C    0.198885
    47  C    0.099399
    48  C   -0.091897
    49  N    0.458761
    50  O   -0.368089
    51  O   -0.339130
    52  N   -0.058713
    53  B    0.315020
    54  F   -0.330306
    55  F   -0.330322
    56  N   -0.058735
    57  C    0.020332
 Electronic spatial extent (au):  <R**2>=          58534.2814
 Charge=              0.0000 electrons
 Dipole moment (field-independent basis, Debye):
    X=             -1.0219    Y=             -0.0006    Z=             -0.0032  Tot=              1.0219
 Quadrupole moment (field-independent basis, Debye-Ang):
   XX=           -370.6754   YY=           -256.2861   ZZ=           -379.8099
   XY=              0.0245   XZ=             -0.0002   YZ=            -10.9532
 Traceless Quadrupole moment (field-independent basis, Debye-Ang):
   XX=            -35.0849   YY=             79.3043   ZZ=            -44.2195
   XY=              0.0245   XZ=             -0.0002   YZ=            -10.9532
 Octapole moment (field-independent basis, Debye-Ang**2):
  XXX=          -1243.8550  YYY=              0.0388  ZZZ=             -0.0208  XYY=           -122.7701
  XXY=              0.1749  XXZ=              0.0065  XZZ=             93.9126  YZZ=             -0.0037
  YYZ=             -0.1059  XYZ=             11.9736
 Hexadecapole moment (field-independent basis, Debye-Ang**3):
 XXXX=         -48106.9575 YYYY=         -28547.7343 ZZZZ=          -1570.7609 XXXY=              2.2436
 XXXZ=             -0.2831 YYYX=              1.4282 YYYZ=           -590.4949 ZZZX=              0.0301
 ZZZY=              1.2439 XXYY=         -12482.6371 XXZZ=          -7351.2595 YYZZ=          -6333.7342
 XXYZ=             77.4218 YYXZ=              0.1105 ZZXY=              0.0739
 N-N= 8.759037856627D+03 E-N=-2.504088678203D+04  KE= 2.891395009113D+03
 No NMR shielding tensors so no spin-rotation constants.
 Leave Link  601 at Sun Oct 12 09:48:55 2025, MaxMem= 30870077440 cpu:             142.3 elap:               2.7
 (Enter /work/home/accqbws0vm/apprepo/gaussian/16-hy/scripts/../app/g16/l9999.exe)
 1\1\GINC-G03R2N33\SP\RM062X\def2TZVPP\C37H30B1F2I2N5O10\ACCQBWS0VM\12-
 Oct-2025\0\\#p M062X/DEF2TZVPP scrf=(solvent=water) em=GD3\\Energy cal
 culation for M100034928\\0,1\C,0,3.68653,8.122989,1.0172\O,0,4.701364,
 7.124035,0.836332\C,0,4.3297,5.904922,0.381394\C,0,5.385388,4.965533,0
 .222152\O,0,6.627129,5.412917,0.545289\C,0,7.723921,4.50111,0.402217\C
 ,0,5.093471,3.701175,-0.262562\C,0,3.770422,3.353516,-0.577567\N,0,3.6
 08072,2.060287,-1.224501\O,0,4.417536,1.164139,-0.946323\O,0,2.709035,
 1.91305,-2.058761\C,0,2.694602,4.239284,-0.377996\C,0,1.256906,3.95023
 8,-0.508606\C,0,0.644068,2.827743,-0.076997\C,0,-0.776045,2.540965,-0.
 127576\C,0,-1.932126,3.372317,-0.224428\I,0,-1.98346,5.464494,-0.25284
 9\C,0,-3.072839,2.571361,-0.199194\C,0,-4.487346,3.05195,-0.281879\C,0
 ,-2.597286,1.222833,-0.074726\C,0,-3.290078,-0.000546,0.00001\C,0,-4.7
 83658,-0.00084,-0.000002\C,0,-5.486397,-0.252119,-1.188175\C,0,-6.8772
 15,-0.249667,-1.196428\C,0,-7.549937,-0.001397,-0.00004\N,0,-9.011352,
 -0.001691,-0.00006\O,0,-9.598171,-0.216599,-1.064933\O,0,-9.598283,0.2
 12971,1.0648\C,0,-6.877348,0.247141,1.196367\C,0,-5.486532,0.250154,1.
 18815\C,0,-2.596831,-1.223665,0.074745\C,0,-3.071868,-2.572368,0.19930
 8\C,0,-4.486182,-3.053505,0.282102\C,0,-1.930848,-3.372888,0.224516\I,
 0,-1.981372,-5.465084,0.252969\C,0,-0.775087,-2.5411,0.127581\C,0,0.64
 513,-2.827369,0.076887\C,0,1.25839,-3.949514,0.508799\C,0,2.696155,-4.
 238194,0.378085\C,0,3.025012,-5.528785,-0.081718\C,0,4.331617,-5.90364
 3,-0.38093\O,0,4.703564,-7.122829,-0.83545\C,0,3.688997,-8.122163,-1.0
 15717\C,0,5.387062,-4.963899,-0.22217\O,0,6.628885,-5.411053,-0.545318
 \C,0,7.725476,-4.498954,-0.402551\C,0,5.094855,-3.699452,0.262139\C,0,
 3.771751,-3.352059,0.577208\N,0,3.609128,-2.058668,1.22375\O,0,4.41827
 5,-1.162368,0.945138\O,0,2.710198,-1.911437,2.058124\N,0,-1.20586,-1.2
 51077,0.034096\B,0,-0.284886,0.00001,-0.000191\F,0,0.522579,-0.0285,-1
 .143625\F,0,0.522999,0.028789,1.142941\N,0,-1.206322,1.250769,-0.03411
 8\C,0,3.023163,5.529812,0.082206\H,0,2.950632,7.80272,1.761478\H,0,4.2
 10321,9.00903,1.375969\H,0,3.185664,8.348367,0.070465\H,0,7.585607,3.6
 17336,1.033815\H,0,7.846645,4.194436,-0.641851\H,0,8.607373,5.050394,0
 .728348\H,0,5.877093,2.978988,-0.443173\H,0,0.671007,4.76986,-0.910443
 \H,0,1.244557,2.034155,0.353811\H,0,-4.991613,2.987146,0.688048\H,0,-4
 .51114,4.095706,-0.599971\H,0,-5.073046,2.466805,-0.993761\H,0,-4.9432
 16,-0.445935,-2.106713\H,0,-7.431189,-0.438378,-2.1071\H,0,-7.431423,0
 .435631,2.107024\H,0,-4.943453,0.444197,2.106701\H,0,-5.072144,-2.4683
 99,0.993794\H,0,-4.990448,-2.989192,-0.687862\H,0,-4.509555,-4.097183,
 0.600487\H,0,1.24528,-2.033707,-0.354262\H,0,0.672796,-4.769157,0.9110
 37\H,0,2.217037,-6.232281,-0.240145\H,0,3.188359,-8.347285,-0.068801\H
 ,0,2.952875,-7.802433,-1.760006\H,0,4.21299,-9.008201,-1.3742\H,0,7.84
 8159,-4.19194,0.641423\H,0,8.609043,-5.048135,-0.728544\H,0,7.586947,-
 3.615401,-1.03441\H,0,5.878295,-2.976983,0.442406\H,0,2.215013,6.23302
 8,0.240987\\Version=ES64L-G16RevA.03\State=1-A\HF=-3273.6670419\RMSD=7
 .504e-09\Dipole=0.4020536,-0.0002168,0.0012514\Quadrupole=-26.0847479,
 58.9608364,-32.8760885,-0.0182048,-0.0001825,8.1434687\PG=C01 [X(C37H3
 0B1F2I2N5O10)]\\@


 NEVER LISTEN TO CRITICISM
 OR YOU'LL BE DOIN' EVERYBODY ELSE'S THING BUT BUT YOUR OWN.

                                               -- ANDY CAPP
 Job cpu time:       1 days  1 hours 48 minutes  8.4 seconds.
 Elapsed time:       0 days  0 hours 24 minutes 40.1 seconds.
 File lengths (MBytes):  RWF=   3337 Int=      0 D2E=      0 Chk=    287 Scr=      1
 Normal termination of Gaussian 16 at Sun Oct 12 09:48:55 2025.
