 Entering Gaussian System, Link 0=g16
 Input=M100032143_reduced_sp.gjf
 Output=M100032143_reduced_sp.log
 Initial command:
 /public/software/gauss/g16/l1.exe "/public/home/baiding/1101_v2_sp/tmp_M100032143_reduced_sp_1568608/Gau-4120889.inp" -scrdir="/public/home/baiding/1101_v2_sp/tmp_M100032143_reduced_sp_1568608/"
 Entering Link 1 = /public/software/gauss/g16/l1.exe PID=   4120890.
  
 Copyright (c) 1988,1990,1992,1993,1995,1998,2003,2009,2016,
            Gaussian, Inc.  All Rights Reserved.
  
 This is part of the Gaussian(R) 16 program.  It is based on
 the Gaussian(R) 09 system (copyright 2009, Gaussian, Inc.),
 the Gaussian(R) 03 system (copyright 2003, Gaussian, Inc.),
 the Gaussian(R) 98 system (copyright 1998, Gaussian, Inc.),
 the Gaussian(R) 94 system (copyright 1995, Gaussian, Inc.),
 the Gaussian 92(TM) system (copyright 1992, Gaussian, Inc.),
 the Gaussian 90(TM) system (copyright 1990, Gaussian, Inc.),
 the Gaussian 88(TM) system (copyright 1988, Gaussian, Inc.),
 the Gaussian 86(TM) system (copyright 1986, Carnegie Mellon
 University), and the Gaussian 82(TM) system (copyright 1983,
 Carnegie Mellon University). Gaussian is a federally registered
 trademark of Gaussian, Inc.
  
 This software contains proprietary and confidential information,
 including trade secrets, belonging to Gaussian, Inc.
  
 This software is provided under written license and may be
 used, copied, transmitted, or stored only in accord with that
 written license.
  
 The following legend is applicable only to US Government
 contracts under FAR:
  
                    RESTRICTED RIGHTS LEGEND
  
 Use, reproduction and disclosure by the US Government is
 subject to restrictions as set forth in subparagraphs (a)
 and (c) of the Commercial Computer Software - Restricted
 Rights clause in FAR 52.227-19.
  
 Gaussian, Inc.
 340 Quinnipiac St., Bldg. 40, Wallingford CT 06492
  
  
 ---------------------------------------------------------------
 Warning -- This program may not be used in any manner that
 competes with the business of Gaussian, Inc. or will provide
 assistance to any competitor of Gaussian, Inc.  The licensee
 of this program is prohibited from giving any competitor of
 Gaussian, Inc. access to this program.  By using this program,
 the user acknowledges that Gaussian, Inc. is engaged in the
 business of creating and licensing software in the field of
 computational chemistry and represents and warrants to the
 licensee that it is not a competitor of Gaussian, Inc. and that
 it will not use this program in any manner prohibited above.
 ---------------------------------------------------------------
  

 Cite this work as:
 Gaussian 16, Revision A.03,
 M. J. Frisch, G. W. Trucks, H. B. Schlegel, G. E. Scuseria, 
 M. A. Robb, J. R. Cheeseman, G. Scalmani, V. Barone, 
 G. A. Petersson, H. Nakatsuji, X. Li, M. Caricato, A. V. Marenich, 
 J. Bloino, B. G. Janesko, R. Gomperts, B. Mennucci, H. P. Hratchian, 
 J. V. Ortiz, A. F. Izmaylov, J. L. Sonnenberg, D. Williams-Young, 
 F. Ding, F. Lipparini, F. Egidi, J. Goings, B. Peng, A. Petrone, 
 T. Henderson, D. Ranasinghe, V. G. Zakrzewski, J. Gao, N. Rega, 
 G. Zheng, W. Liang, M. Hada, M. Ehara, K. Toyota, R. Fukuda, 
 J. Hasegawa, M. Ishida, T. Nakajima, Y. Honda, O. Kitao, H. Nakai, 
 T. Vreven, K. Throssell, J. A. Montgomery, Jr., J. E. Peralta, 
 F. Ogliaro, M. J. Bearpark, J. J. Heyd, E. N. Brothers, K. N. Kudin, 
 V. N. Staroverov, T. A. Keith, R. Kobayashi, J. Normand, 
 K. Raghavachari, A. P. Rendell, J. C. Burant, S. S. Iyengar, 
 J. Tomasi, M. Cossi, J. M. Millam, M. Klene, C. Adamo, R. Cammi, 
 J. W. Ochterski, R. L. Martin, K. Morokuma, O. Farkas, 
 J. B. Foresman, and D. J. Fox, Gaussian, Inc., Wallingford CT, 2016.
 
 ******************************************
 Gaussian 16:  ES64L-G16RevA.03 25-Dec-2016
                 6-Nov-2025 
 ******************************************
 %nprocshared=64
 Will use up to   64 processors via shared memory.
 %mem=230GB
 %chk=M100032143_reduced_sp.chk
 ----------------------------------------------
 #p M062X/DEF2TZVPP scrf=(solvent=water) em=GD3
 ----------------------------------------------
 1/38=1,172=1/1;
 2/12=2,17=6,18=5,40=1/2;
 3/5=44,7=202,11=2,25=1,30=1,70=2201,72=1,74=-55,124=31/1,2,3;
 4//1;
 5/5=2,38=5,53=1/2;
 6/7=2,8=2,9=2,10=2,28=1/1;
 99/5=1,9=1/99;
 Leave Link    1 at Thu Nov  6 04:36:48 2025, MaxMem= 30870077440 cpu:               9.9 elap:               0.2
 (Enter /public/software/gauss/g16/l101.exe)
 -----------------------------------------
 Energy calculation for M100032143_reduced
 -----------------------------------------
 Symbolic Z-matrix:
 Charge = -1 Multiplicity = 2
 C                    -3.29794   3.12772   0.04484 
 C                    -1.89458   2.59171   0.0464 
 C                    -0.75216   3.38777   0.00385 
 C                     0.38818   2.56025  -0.00352 
 C                     1.77443   2.92263  -0.05798 
 C                     2.25566   4.1959    0.0253 
 C                     3.65394   4.60153  -0.04884 
 C                     4.72705   3.69619  -0.22045 
 C                     6.04261   4.14587  -0.28092 
 C                     6.33753   5.51027  -0.17393 
 C                     5.29129   6.42113  -0.00409 
 C                     3.97329   5.97384   0.05769 
 N                    -0.04991   1.24298   0.02994 
 C                    -1.4417    1.2316    0.0693 
 C                    -2.1545    0.00516   0.10434 
 C                    -1.4465   -1.22402   0.07165 
 C                    -1.90415  -2.58271   0.06511 
 C                    -3.30921  -3.11389   0.08325 
 C                    -0.76477  -3.38314   0.02219 
 C                     0.37836  -2.55976   0.00148 
 C                     1.76312  -2.92703  -0.05677 
 C                     2.24075  -4.20137   0.03113 
 C                     3.63747  -4.61165  -0.04627 
 C                     3.95302  -5.98444   0.06548 
 C                     5.26942  -6.43606   0.00099 
 C                     6.31781  -5.52921  -0.17687 
 C                     6.02668  -4.16442  -0.28916 
 C                     4.71272  -3.71043  -0.22604 
 N                    -0.05486  -1.24058   0.02622 
 B                     0.83663  -0.00078   0.21126 
 F                     1.88086  -0.00139  -0.74975 
 F                     1.44216  -0.00411   1.49079 
 C                    -3.64741   0.00864   0.16679 
 C                    -4.421    -0.02945  -1.00376 
 C                    -5.81368  -0.02525  -0.95634 
 C                    -6.46053   0.01748   0.28479 
 C                    -5.70992   0.05545   1.46447 
 C                    -4.31856   0.05106   1.39889 
 N                    -7.87605   0.02559   0.44406 
 N                    -8.58511  -0.0068   -0.56745 
 N                    -9.35409  -0.03339  -1.41024 
 H                    -3.85963   2.83838   0.93949 
 H                    -3.27242   4.22115   0.00898 
 H                    -3.87897   2.78086  -0.81635 
 H                    -0.7412    4.46939  -0.04199 
 H                     2.47111   2.10132  -0.18902 
 H                     1.54952   5.01348   0.16206 
 H                     4.52888   2.63227  -0.30633 
 H                     6.84664   3.42695  -0.41301 
 H                     7.36587   5.85535  -0.22251 
 H                     5.50235   7.48361   0.08064 
 H                     3.16692   6.69092   0.19021 
 H                    -3.87437  -2.77619   0.95835 
 H                    -3.88479  -2.81111  -0.79819 
 H                    -3.28703  -4.20779   0.10416 
 H                    -0.75786  -4.46521  -0.01272 
 H                     2.46178  -2.10859  -0.19512 
 H                     1.53265  -5.01609   0.17463 
 H                     3.14495  -6.69842   0.20426 
 H                     5.47755  -7.49877   0.0899 
 H                     7.34492  -5.87766  -0.22755 
 H                     6.8324   -3.44859  -0.42748 
 H                     4.51748  -2.64632  -0.31616 
 H                    -3.92575  -0.06211  -1.96948 
 H                    -6.38636  -0.05418  -1.87846 
 H                    -6.22136   0.0878    2.42081 
 H                    -3.74367   0.08035   2.31945 
 
 ITRead=  0  0  0  0  0  0  0  0  0  0  0  0  0  0  0  0  0  0  0  0
 ITRead=  0  0  0  0  0  0  0  0  0  0  0  0  0  0  0  0  0  0  0  0
 ITRead=  0  0  0  0  0  0  0  0  0  0  0  0  0  0  0  0  0  0  0  0
 ITRead=  0  0  0  0  0  0  0
 MicOpt= -1 -1 -1 -1 -1 -1 -1 -1 -1 -1 -1 -1 -1 -1 -1 -1 -1 -1 -1 -1
 MicOpt= -1 -1 -1 -1 -1 -1 -1 -1 -1 -1 -1 -1 -1 -1 -1 -1 -1 -1 -1 -1
 MicOpt= -1 -1 -1 -1 -1 -1 -1 -1 -1 -1 -1 -1 -1 -1 -1 -1 -1 -1 -1 -1
 MicOpt= -1 -1 -1 -1 -1 -1 -1
 NAtoms=     67 NQM=       67 NQMF=       0 NMMI=      0 NMMIF=      0
                NMic=       0 NMicF=      0.
                    Isotopes and Nuclear Properties:
 (Nuclear quadrupole moments (NQMom) in fm**2, nuclear magnetic moments (NMagM)
  in nuclear magnetons)

  Atom         1           2           3           4           5           6           7           8           9          10
 IAtWgt=          12          12          12          12          12          12          12          12          12          12
 AtmWgt=  12.0000000  12.0000000  12.0000000  12.0000000  12.0000000  12.0000000  12.0000000  12.0000000  12.0000000  12.0000000
 NucSpn=           0           0           0           0           0           0           0           0           0           0
 AtZEff=  -0.0000000  -0.0000000  -0.0000000  -0.0000000  -0.0000000  -0.0000000  -0.0000000  -0.0000000  -0.0000000  -0.0000000
 NQMom=    0.0000000   0.0000000   0.0000000   0.0000000   0.0000000   0.0000000   0.0000000   0.0000000   0.0000000   0.0000000
 NMagM=    0.0000000   0.0000000   0.0000000   0.0000000   0.0000000   0.0000000   0.0000000   0.0000000   0.0000000   0.0000000
 AtZNuc=   6.0000000   6.0000000   6.0000000   6.0000000   6.0000000   6.0000000   6.0000000   6.0000000   6.0000000   6.0000000

  Atom        11          12          13          14          15          16          17          18          19          20
 IAtWgt=          12          12          14          12          12          12          12          12          12          12
 AtmWgt=  12.0000000  12.0000000  14.0030740  12.0000000  12.0000000  12.0000000  12.0000000  12.0000000  12.0000000  12.0000000
 NucSpn=           0           0           2           0           0           0           0           0           0           0
 AtZEff=  -0.0000000  -0.0000000  -0.0000000  -0.0000000  -0.0000000  -0.0000000  -0.0000000  -0.0000000  -0.0000000  -0.0000000
 NQMom=    0.0000000   0.0000000   2.0440000   0.0000000   0.0000000   0.0000000   0.0000000   0.0000000   0.0000000   0.0000000
 NMagM=    0.0000000   0.0000000   0.4037610   0.0000000   0.0000000   0.0000000   0.0000000   0.0000000   0.0000000   0.0000000
 AtZNuc=   6.0000000   6.0000000   7.0000000   6.0000000   6.0000000   6.0000000   6.0000000   6.0000000   6.0000000   6.0000000

  Atom        21          22          23          24          25          26          27          28          29          30
 IAtWgt=          12          12          12          12          12          12          12          12          14          11
 AtmWgt=  12.0000000  12.0000000  12.0000000  12.0000000  12.0000000  12.0000000  12.0000000  12.0000000  14.0030740  11.0093053
 NucSpn=           0           0           0           0           0           0           0           0           2           3
 AtZEff=  -0.0000000  -0.0000000  -0.0000000  -0.0000000  -0.0000000  -0.0000000  -0.0000000  -0.0000000  -0.0000000  -0.0000000
 NQMom=    0.0000000   0.0000000   0.0000000   0.0000000   0.0000000   0.0000000   0.0000000   0.0000000   2.0440000   4.0590000
 NMagM=    0.0000000   0.0000000   0.0000000   0.0000000   0.0000000   0.0000000   0.0000000   0.0000000   0.4037610   2.6886370
 AtZNuc=   6.0000000   6.0000000   6.0000000   6.0000000   6.0000000   6.0000000   6.0000000   6.0000000   7.0000000   5.0000000

  Atom        31          32          33          34          35          36          37          38          39          40
 IAtWgt=          19          19          12          12          12          12          12          12          14          14
 AtmWgt=  18.9984033  18.9984033  12.0000000  12.0000000  12.0000000  12.0000000  12.0000000  12.0000000  14.0030740  14.0030740
 NucSpn=           1           1           0           0           0           0           0           0           2           2
 AtZEff=  -0.0000000  -0.0000000  -0.0000000  -0.0000000  -0.0000000  -0.0000000  -0.0000000  -0.0000000  -0.0000000  -0.0000000
 NQMom=    0.0000000   0.0000000   0.0000000   0.0000000   0.0000000   0.0000000   0.0000000   0.0000000   2.0440000   2.0440000
 NMagM=    2.6288670   2.6288670   0.0000000   0.0000000   0.0000000   0.0000000   0.0000000   0.0000000   0.4037610   0.4037610
 AtZNuc=   9.0000000   9.0000000   6.0000000   6.0000000   6.0000000   6.0000000   6.0000000   6.0000000   7.0000000   7.0000000

  Atom        41          42          43          44          45          46          47          48          49          50
 IAtWgt=          14           1           1           1           1           1           1           1           1           1
 AtmWgt=  14.0030740   1.0078250   1.0078250   1.0078250   1.0078250   1.0078250   1.0078250   1.0078250   1.0078250   1.0078250
 NucSpn=           2           1           1           1           1           1           1           1           1           1
 AtZEff=  -0.0000000  -0.0000000  -0.0000000  -0.0000000  -0.0000000  -0.0000000  -0.0000000  -0.0000000  -0.0000000  -0.0000000
 NQMom=    2.0440000   0.0000000   0.0000000   0.0000000   0.0000000   0.0000000   0.0000000   0.0000000   0.0000000   0.0000000
 NMagM=    0.4037610   2.7928460   2.7928460   2.7928460   2.7928460   2.7928460   2.7928460   2.7928460   2.7928460   2.7928460
 AtZNuc=   7.0000000   1.0000000   1.0000000   1.0000000   1.0000000   1.0000000   1.0000000   1.0000000   1.0000000   1.0000000

  Atom        51          52          53          54          55          56          57          58          59          60
 IAtWgt=           1           1           1           1           1           1           1           1           1           1
 AtmWgt=   1.0078250   1.0078250   1.0078250   1.0078250   1.0078250   1.0078250   1.0078250   1.0078250   1.0078250   1.0078250
 NucSpn=           1           1           1           1           1           1           1           1           1           1
 AtZEff=  -0.0000000  -0.0000000  -0.0000000  -0.0000000  -0.0000000  -0.0000000  -0.0000000  -0.0000000  -0.0000000  -0.0000000
 NQMom=    0.0000000   0.0000000   0.0000000   0.0000000   0.0000000   0.0000000   0.0000000   0.0000000   0.0000000   0.0000000
 NMagM=    2.7928460   2.7928460   2.7928460   2.7928460   2.7928460   2.7928460   2.7928460   2.7928460   2.7928460   2.7928460
 AtZNuc=   1.0000000   1.0000000   1.0000000   1.0000000   1.0000000   1.0000000   1.0000000   1.0000000   1.0000000   1.0000000

  Atom        61          62          63          64          65          66          67
 IAtWgt=           1           1           1           1           1           1           1
 AtmWgt=   1.0078250   1.0078250   1.0078250   1.0078250   1.0078250   1.0078250   1.0078250
 NucSpn=           1           1           1           1           1           1           1
 AtZEff=  -0.0000000  -0.0000000  -0.0000000  -0.0000000  -0.0000000  -0.0000000  -0.0000000
 NQMom=    0.0000000   0.0000000   0.0000000   0.0000000   0.0000000   0.0000000   0.0000000
 NMagM=    2.7928460   2.7928460   2.7928460   2.7928460   2.7928460   2.7928460   2.7928460
 AtZNuc=   1.0000000   1.0000000   1.0000000   1.0000000   1.0000000   1.0000000   1.0000000
 Leave Link  101 at Thu Nov  6 04:36:48 2025, MaxMem= 30870077440 cpu:               4.1 elap:               0.1
 (Enter /public/software/gauss/g16/l202.exe)
 Stoichiometry    C33H26BF2N5(1-,2)
 Framework group  C1[X(C33H26BF2N5)]
 Deg. of freedom   195
 Full point group                 C1      NOp   1
 Largest Abelian subgroup         C1      NOp   1
 Largest concise Abelian subgroup C1      NOp   1
                         Standard orientation:                         
 ---------------------------------------------------------------------
 Center     Atomic      Atomic             Coordinates (Angstroms)
 Number     Number       Type             X           Y           Z
 ---------------------------------------------------------------------
      1          6           0        3.297941   -3.127720    0.044841
      2          6           0        1.894584   -2.591705    0.046399
      3          6           0        0.752156   -3.387767    0.003853
      4          6           0       -0.388182   -2.560253   -0.003516
      5          6           0       -1.774427   -2.922628   -0.057983
      6          6           0       -2.255658   -4.195895    0.025297
      7          6           0       -3.653935   -4.601529   -0.048843
      8          6           0       -4.727045   -3.696188   -0.220451
      9          6           0       -6.042615   -4.145868   -0.280919
     10          6           0       -6.337527   -5.510273   -0.173932
     11          6           0       -5.291293   -6.421131   -0.004087
     12          6           0       -3.973287   -5.973842    0.057689
     13          7           0        0.049911   -1.242975    0.029942
     14          6           0        1.441703   -1.231602    0.069295
     15          6           0        2.154496   -0.005160    0.104343
     16          6           0        1.446504    1.224023    0.071651
     17          6           0        1.904152    2.582708    0.065111
     18          6           0        3.309212    3.113890    0.083254
     19          6           0        0.764773    3.383139    0.022189
     20          6           0       -0.378363    2.559762    0.001478
     21          6           0       -1.763115    2.927025   -0.056768
     22          6           0       -2.240746    4.201365    0.031131
     23          6           0       -3.637472    4.611654   -0.046267
     24          6           0       -3.953020    5.984441    0.065481
     25          6           0       -5.269418    6.436058    0.000990
     26          6           0       -6.317812    5.529214   -0.176871
     27          6           0       -6.026678    4.164424   -0.289162
     28          6           0       -4.712717    3.710432   -0.226035
     29          7           0        0.054863    1.240584    0.026219
     30          5           0       -0.836627    0.000781    0.211257
     31          9           0       -1.880861    0.001392   -0.749749
     32          9           0       -1.442164    0.004114    1.490789
     33          6           0        3.647409   -0.008641    0.166791
     34          6           0        4.420998    0.029452   -1.003756
     35          6           0        5.813684    0.025248   -0.956336
     36          6           0        6.460531   -0.017480    0.284790
     37          6           0        5.709916   -0.055447    1.464465
     38          6           0        4.318562   -0.051057    1.398891
     39          7           0        7.876045   -0.025590    0.444057
     40          7           0        8.585105    0.006799   -0.567450
     41          7           0        9.354093    0.033387   -1.410239
     42          1           0        3.859627   -2.838376    0.939486
     43          1           0        3.272421   -4.221148    0.008978
     44          1           0        3.878972   -2.780857   -0.816346
     45          1           0        0.741196   -4.469390   -0.041987
     46          1           0       -2.471105   -2.101316   -0.189021
     47          1           0       -1.549520   -5.013482    0.162061
     48          1           0       -4.528877   -2.632270   -0.306334
     49          1           0       -6.846641   -3.426952   -0.413010
     50          1           0       -7.365873   -5.855349   -0.222508
     51          1           0       -5.502351   -7.483608    0.080643
     52          1           0       -3.166918   -6.690916    0.190211
     53          1           0        3.874365    2.776185    0.958347
     54          1           0        3.884794    2.811106   -0.798193
     55          1           0        3.287030    4.207790    0.104156
     56          1           0        0.757862    4.465210   -0.012721
     57          1           0       -2.461781    2.108585   -0.195120
     58          1           0       -1.532650    5.016095    0.174633
     59          1           0       -3.144954    6.698417    0.204260
     60          1           0       -5.477547    7.498772    0.089899
     61          1           0       -7.344919    5.877663   -0.227547
     62          1           0       -6.832403    3.448591   -0.427482
     63          1           0       -4.517484    2.646321   -0.316160
     64          1           0        3.925748    0.062110   -1.969477
     65          1           0        6.386356    0.054181   -1.878463
     66          1           0        6.221361   -0.087799    2.420814
     67          1           0        3.743672   -0.080354    2.319454
 ---------------------------------------------------------------------
 Rotational constants (GHZ):           0.0837275           0.0491444           0.0317039
 Leave Link  202 at Thu Nov  6 04:36:48 2025, MaxMem= 30870077440 cpu:               0.2 elap:               0.0
 (Enter /public/software/gauss/g16/l301.exe)
 Standard basis: def2TZVPP (5D, 7F)
 Ernie: Thresh=  0.10000D-02 Tol=  0.10000D-05 Strict=F.
 There are  1866 symmetry adapted cartesian basis functions of A   symmetry.
 There are  1635 symmetry adapted basis functions of A   symmetry.
  1635 basis functions,  2533 primitive gaussians,  1866 cartesian basis functions
   142 alpha electrons      141 beta electrons
       nuclear repulsion energy      4179.8468923805 Hartrees.
 IExCor= 4336 DFT=T Ex+Corr=M062X ExCW=0 ScaHFX=  0.540000
 ScaDFX=  1.000000  1.000000  1.000000  1.000000 ScalE2=  1.000000  1.000000
 IRadAn=      5 IRanWt=     -1 IRanGd=            0 ICorTp=0 IEmpDi=131
 NAtoms=   67 NActive=   67 NUniq=   67 SFac= 1.00D+00 NAtFMM=   60 NAOKFM=T Big=T
 Integral buffers will be    131072 words long.
 Raffenetti 2 integral format.
 Two-electron integral symmetry is turned on.
 R6Disp:  Grimme-D3 Dispersion energy=       -0.0053326679 Hartrees.
 Nuclear repulsion after empirical dispersion term =     4179.8415597126 Hartrees.
 ------------------------------------------------------------------------------
 Polarizable Continuum Model (PCM)
 =================================
 Model                : PCM.
 Atomic radii         : UFF (Universal Force Field).
 Polarization charges : Total charges.
 Charge compensation  : None.
 Solution method      : On-the-fly selection.
 Cavity type          : Scaled VdW (van der Waals Surface) (Alpha=1.100).
 Cavity algorithm     : GePol (No added spheres)
                        Default sphere list used, NSphG=   67.
                        Lebedev-Laikov grids with approx.  5.0 points / Ang**2.
                        Smoothing algorithm: York/Karplus (Gamma=1.0000).
                        Polarization charges: spherical gaussians, with
                                              point-specific exponents (IZeta= 3).
                        Self-potential: point-specific (ISelfS= 7).
                        Self-field    : sphere-specific E.n sum rule (ISelfD= 2).
 Solvent              : Water, Eps=  78.355300 Eps(inf)=   1.777849
 ------------------------------------------------------------------------------
 GePol: Number of generator spheres                  =      67
 GePol: Total number of spheres                      =      67
 GePol: Number of exposed spheres                    =      67 (100.00%)
 GePol: Number of points                             =    5000
 GePol: Average weight of points                     =       0.13
 GePol: Minimum weight of points                     =   0.46D-11
 GePol: Maximum weight of points                     =    0.20577
 GePol: Number of points with low weight             =     278
 GePol: Fraction of low-weight points (<1% of avg)   =       5.56%
 GePol: Cavity surface area                          =    638.958 Ang**2
 GePol: Cavity volume                                =    730.606 Ang**3
 Leave Link  301 at Thu Nov  6 04:36:48 2025, MaxMem= 30870077440 cpu:               3.2 elap:               0.1
 (Enter /public/software/gauss/g16/l302.exe)
 NPDir=0 NMtPBC=     1 NCelOv=     1 NCel=       1 NClECP=     1 NCelD=      1
         NCelK=      1 NCelE2=     1 NClLst=     1 CellRange=     0.0.
 One-electron integrals computed using PRISM.
 One-electron integral symmetry used in STVInt
   1 Symmetry operations used in ECPInt.
 ECPInt:  NShTT=  184528 NPrTT=  529886 LenC2=  122348 LenP2D=  238152.
 LDataN:  DoStor=T MaxTD1= 6 Len=  172
 NBasis=  1635 RedAO= T EigKep=  3.82D-06  NBF=  1635
 NBsUse=  1635 1.00D-06 EigRej= -1.00D+00 NBFU=  1635
 Precomputing XC quadrature grid using
 IXCGrd= 4 IRadAn=           5 IRanWt=          -1 IRanGd=           0 AccXCQ= 0.00D+00.
 Generated NRdTot=       0 NPtTot=           0 NUsed=           0 NTot=          32
 NSgBfM=  1680  1680  1680  1680  1680 MxSgAt=    67 MxSgA2=    67.
 Leave Link  302 at Thu Nov  6 04:36:55 2025, MaxMem= 30870077440 cpu:             440.7 elap:               6.9
 (Enter /public/software/gauss/g16/l303.exe)
 DipDrv:  MaxL=1.
 Leave Link  303 at Thu Nov  6 04:36:55 2025, MaxMem= 30870077440 cpu:              22.3 elap:               0.4
 (Enter /public/software/gauss/g16/l401.exe)
 ExpMin= 6.06D-02 ExpMax= 3.55D+04 ExpMxC= 1.21D+03 IAcc=3 IRadAn=         5 AccDes= 0.00D+00
 Harris functional with IExCor= 1009 and IRadAn=       5 diagonalized for initial guess.
 HarFok:  IExCor= 1009 AccDes= 0.00D+00 IRadAn=         5 IDoV= 1 UseB2=F ITyADJ=14
 ICtDFT=  3500011 ScaDFX=  1.000000  1.000000  1.000000  1.000000
 FoFCou: FMM=F IPFlag=           0 FMFlag=      100000 FMFlg1=        2001
         NFxFlg=           0 DoJE=T BraDBF=F KetDBF=T FulRan=T
         wScrn=  0.000000 ICntrl=       500 IOpCl=  0 I1Cent=   200000004 NGrid=           0
         NMat0=    1 NMatS0=      1 NMatT0=    0 NMatD0=    1 NMtDS0=    0 NMtDT0=    0
 Petite list used in FoFCou.
 Harris En= -1770.88084483620    
 JPrj=0 DoOrth=F DoCkMO=F.
 Initial guess <Sx>= 0.0000 <Sy>= 0.0000 <Sz>= 0.5000 <S**2>= 0.7500 S= 0.5000
 Leave Link  401 at Thu Nov  6 04:37:04 2025, MaxMem= 30870077440 cpu:             569.4 elap:               9.0
 (Enter /public/software/gauss/g16/l502.exe)
 Integral symmetry usage will be decided dynamically.
 UHF open shell SCF:
 Using DIIS extrapolation, IDIIS=  1040.
 NGot= 30870077440 LenX= 30862978417 LenY= 30859494595
 Requested convergence on RMS density matrix=1.00D-08 within 128 cycles.
 Requested convergence on MAX density matrix=1.00D-06.
 Requested convergence on             energy=1.00D-06.
 No special actions if energy rises.
 Fock matrices will be formed incrementally for  20 cycles.

 Cycle   1  Pass 1  IDiag  1:
 FoFJK:  IHMeth= 1 ICntrl=       0 DoSepK=F KAlg= 0 I1Cent=           0 FoldK=F
 IRaf= 630000000 NMat=       1 IRICut=       1 DoRegI=T DoRafI=F ISym2E= 0 IDoP0=0 IntGTp=1.
 FoFCou: FMM=T IPFlag=           0 FMFlag=      100000 FMFlg1=        2001
         NFxFlg=           0 DoJE=F BraDBF=F KetDBF=F FulRan=T
         wScrn=  0.000000 ICntrl=         0 IOpCl=  1 I1Cent=           0 NGrid=           0
         NMat0=    1 NMatS0=      1 NMatT0=    0 NMatD0=    1 NMtDS0=    0 NMtDT0=    0
 Symmetry not used in FoFCou.
 FMM levels:  10  Number of levels for PrismC:   9
 Inv3:  Mode=1 IEnd=    75000000.
 Iteration    1 A*A^-1 deviation from unit magnitude is 1.40D-14 for    684.
 Iteration    1 A*A^-1 deviation from orthogonality  is 6.10D-15 for   3544    377.
 Iteration    1 A^-1*A deviation from unit magnitude is 1.35D-14 for    684.
 Iteration    1 A^-1*A deviation from orthogonality  is 7.19D-15 for   4520    551.
 E= -1770.71280300396    
 DIIS: error= 2.19D-02 at cycle   1 NSaved=   1.
 NSaved= 1 IEnMin= 1 EnMin= -1770.71280300396     IErMin= 1 ErrMin= 2.19D-02
 ErrMax= 2.19D-02  0.00D+00 EMaxC= 1.00D-01 BMatC= 4.72D+00 BMatP= 4.72D+00
 IDIUse=3 WtCom= 7.81D-01 WtEn= 2.19D-01
 Coeff-Com:  0.100D+01
 Coeff-En:   0.100D+01
 Coeff:      0.100D+01
 Gap=     0.135 Goal=   None    Shift=    0.000
 Gap=     0.277 Goal=   None    Shift=    0.000
 GapD=    0.135 DampG=1.000 DampE=0.500 DampFc=0.5000 IDamp=-1.
 Damping current iteration by 5.00D-01
 RMSDP=1.39D-03 MaxDP=1.27D-01              OVMax= 2.23D-01

 Cycle   2  Pass 1  IDiag  1:
 RMSU=  6.87D-04    CP:  9.77D-01
 E= -1771.21991266359     Delta-E=       -0.507109659633 Rises=F Damp=T
 DIIS: error= 5.58D-03 at cycle   2 NSaved=   2.
 NSaved= 2 IEnMin= 2 EnMin= -1771.21991266359     IErMin= 2 ErrMin= 5.58D-03
 ErrMax= 5.58D-03  0.00D+00 EMaxC= 1.00D-01 BMatC= 4.42D-01 BMatP= 4.72D+00
 IDIUse=3 WtCom= 9.44D-01 WtEn= 5.58D-02
 Coeff-Com: -0.161D+00 0.116D+01
 Coeff-En:   0.000D+00 0.100D+01
 Coeff:     -0.152D+00 0.115D+01
 Gap=     0.168 Goal=   None    Shift=    0.000
 Gap=     0.220 Goal=   None    Shift=    0.000
 RMSDP=6.93D-04 MaxDP=5.71D-02 DE=-5.07D-01 OVMax= 1.21D-01

 Cycle   3  Pass 1  IDiag  1:
 RMSU=  6.42D-04    CP:  9.60D-01  1.36D+00
 E= -1771.66226075487     Delta-E=       -0.442348091286 Rises=F Damp=F
 DIIS: error= 5.06D-03 at cycle   3 NSaved=   3.
 NSaved= 3 IEnMin= 3 EnMin= -1771.66226075487     IErMin= 3 ErrMin= 5.06D-03
 ErrMax= 5.06D-03  0.00D+00 EMaxC= 1.00D-01 BMatC= 1.87D-01 BMatP= 4.42D-01
 IDIUse=3 WtCom= 9.49D-01 WtEn= 5.06D-02
 Coeff-Com: -0.131D+00 0.496D+00 0.635D+00
 Coeff-En:   0.000D+00 0.000D+00 0.100D+01
 Coeff:     -0.124D+00 0.471D+00 0.653D+00
 Gap=     0.130 Goal=   None    Shift=    0.000
 Gap=     0.142 Goal=   None    Shift=    0.000
 RMSDP=1.91D-04 MaxDP=3.10D-02 DE=-4.42D-01 OVMax= 4.68D-02

 Cycle   4  Pass 1  IDiag  1:
 RMSU=  1.80D-04    CP:  9.60D-01  1.40D+00  9.05D-01
 E= -1771.69054081159     Delta-E=       -0.028280056715 Rises=F Damp=F
 DIIS: error= 3.57D-03 at cycle   4 NSaved=   4.
 NSaved= 4 IEnMin= 4 EnMin= -1771.69054081159     IErMin= 4 ErrMin= 3.57D-03
 ErrMax= 3.57D-03  0.00D+00 EMaxC= 1.00D-01 BMatC= 5.25D-02 BMatP= 1.87D-01
 IDIUse=3 WtCom= 9.64D-01 WtEn= 3.57D-02
 Coeff-Com: -0.513D-01 0.138D+00 0.382D+00 0.531D+00
 Coeff-En:   0.000D+00 0.000D+00 0.208D+00 0.792D+00
 Coeff:     -0.495D-01 0.133D+00 0.376D+00 0.540D+00
 Gap=     0.132 Goal=   None    Shift=    0.000
 Gap=     0.144 Goal=   None    Shift=    0.000
 RMSDP=7.45D-05 MaxDP=1.36D-02 DE=-2.83D-02 OVMax= 2.51D-02

 Cycle   5  Pass 1  IDiag  1:
 RMSU=  6.10D-05    CP:  9.59D-01  1.41D+00  9.16D-01  7.70D-01
 E= -1771.70051606121     Delta-E=       -0.009975249616 Rises=F Damp=F
 DIIS: error= 1.46D-03 at cycle   5 NSaved=   5.
 NSaved= 5 IEnMin= 5 EnMin= -1771.70051606121     IErMin= 5 ErrMin= 1.46D-03
 ErrMax= 1.46D-03  0.00D+00 EMaxC= 1.00D-01 BMatC= 4.98D-03 BMatP= 5.25D-02
 IDIUse=3 WtCom= 9.85D-01 WtEn= 1.46D-02
 Coeff-Com: -0.188D-01 0.399D-01 0.166D+00 0.314D+00 0.499D+00
 Coeff-En:   0.000D+00 0.000D+00 0.000D+00 0.000D+00 0.100D+01
 Coeff:     -0.185D-01 0.393D-01 0.164D+00 0.309D+00 0.506D+00
 Gap=     0.133 Goal=   None    Shift=    0.000
 Gap=     0.146 Goal=   None    Shift=    0.000
 RMSDP=2.53D-05 MaxDP=5.32D-03 DE=-9.98D-03 OVMax= 1.03D-02

 Cycle   6  Pass 1  IDiag  1:
 RMSU=  2.39D-05    CP:  9.59D-01  1.41D+00  9.17D-01  7.84D-01  8.72D-01
 E= -1771.70162918539     Delta-E=       -0.001113124184 Rises=F Damp=F
 DIIS: error= 3.63D-04 at cycle   6 NSaved=   6.
 NSaved= 6 IEnMin= 6 EnMin= -1771.70162918539     IErMin= 6 ErrMin= 3.63D-04
 ErrMax= 3.63D-04  0.00D+00 EMaxC= 1.00D-01 BMatC= 4.56D-04 BMatP= 4.98D-03
 IDIUse=3 WtCom= 9.96D-01 WtEn= 3.63D-03
 Coeff-Com: -0.224D-02 0.138D-02 0.293D-01 0.779D-01 0.250D+00 0.643D+00
 Coeff-En:   0.000D+00 0.000D+00 0.000D+00 0.000D+00 0.000D+00 0.100D+01
 Coeff:     -0.223D-02 0.138D-02 0.292D-01 0.776D-01 0.249D+00 0.645D+00
 Gap=     0.135 Goal=   None    Shift=    0.000
 Gap=     0.147 Goal=   None    Shift=    0.000
 RMSDP=1.54D-05 MaxDP=2.31D-03 DE=-1.11D-03 OVMax= 7.70D-03

 Cycle   7  Pass 1  IDiag  1:
 RMSU=  1.14D-05    CP:  9.59D-01  1.41D+00  9.19D-01  7.81D-01  1.04D+00
                    CP:  1.09D+00
 E= -1771.70181852076     Delta-E=       -0.000189335372 Rises=F Damp=F
 DIIS: error= 1.20D-04 at cycle   7 NSaved=   7.
 NSaved= 7 IEnMin= 7 EnMin= -1771.70181852076     IErMin= 7 ErrMin= 1.20D-04
 ErrMax= 1.20D-04  0.00D+00 EMaxC= 1.00D-01 BMatC= 7.77D-05 BMatP= 4.56D-04
 IDIUse=3 WtCom= 9.99D-01 WtEn= 1.20D-03
 Coeff-Com:  0.397D-02-0.930D-02-0.329D-01-0.552D-01-0.552D-01 0.192D+00
 Coeff-Com:  0.957D+00
 Coeff-En:   0.000D+00 0.000D+00 0.000D+00 0.000D+00 0.000D+00 0.000D+00
 Coeff-En:   0.100D+01
 Coeff:      0.396D-02-0.929D-02-0.329D-01-0.552D-01-0.551D-01 0.192D+00
 Coeff:      0.957D+00
 Gap=     0.136 Goal=   None    Shift=    0.000
 Gap=     0.149 Goal=   None    Shift=    0.000
 RMSDP=1.26D-05 MaxDP=1.88D-03 DE=-1.89D-04 OVMax= 8.76D-03

 Cycle   8  Pass 1  IDiag  1:
 RMSU=  6.39D-06    CP:  9.59D-01  1.41D+00  9.19D-01  7.94D-01  1.14D+00
                    CP:  1.36D+00  1.52D+00
 E= -1771.70190675141     Delta-E=       -0.000088230648 Rises=F Damp=F
 DIIS: error= 6.41D-05 at cycle   8 NSaved=   8.
 NSaved= 8 IEnMin= 8 EnMin= -1771.70190675141     IErMin= 8 ErrMin= 6.41D-05
 ErrMax= 6.41D-05  0.00D+00 EMaxC= 1.00D-01 BMatC= 2.48D-05 BMatP= 7.77D-05
 IDIUse=1 WtCom= 1.00D+00 WtEn= 0.00D+00
 Coeff-Com:  0.212D-02-0.386D-02-0.204D-01-0.436D-01-0.102D+00-0.134D+00
 Coeff-Com:  0.369D+00 0.932D+00
 Coeff:      0.212D-02-0.386D-02-0.204D-01-0.436D-01-0.102D+00-0.134D+00
 Coeff:      0.369D+00 0.932D+00
 Gap=     0.138 Goal=   None    Shift=    0.000
 Gap=     0.150 Goal=   None    Shift=    0.000
 RMSDP=8.15D-06 MaxDP=1.03D-03 DE=-8.82D-05 OVMax= 5.02D-03

 Cycle   9  Pass 1  IDiag  1:
 RMSU=  3.29D-06    CP:  9.59D-01  1.41D+00  9.20D-01  8.00D-01  1.19D+00
                    CP:  1.53D+00  1.91D+00  1.46D+00
 E= -1771.70193567453     Delta-E=       -0.000028923117 Rises=F Damp=F
 DIIS: error= 2.72D-05 at cycle   9 NSaved=   9.
 NSaved= 9 IEnMin= 9 EnMin= -1771.70193567453     IErMin= 9 ErrMin= 2.72D-05
 ErrMax= 2.72D-05  0.00D+00 EMaxC= 1.00D-01 BMatC= 4.41D-06 BMatP= 2.48D-05
 IDIUse=1 WtCom= 1.00D+00 WtEn= 0.00D+00
 Coeff-Com: -0.334D-03 0.109D-02 0.208D-02 0.355D-05-0.178D-01-0.808D-01
 Coeff-Com: -0.124D+00 0.271D+00 0.948D+00
 Coeff:     -0.334D-03 0.109D-02 0.208D-02 0.355D-05-0.178D-01-0.808D-01
 Coeff:     -0.124D+00 0.271D+00 0.948D+00
 Gap=     0.138 Goal=   None    Shift=    0.000
 Gap=     0.150 Goal=   None    Shift=    0.000
 RMSDP=3.66D-06 MaxDP=4.52D-04 DE=-2.89D-05 OVMax= 1.74D-03

 Cycle  10  Pass 1  IDiag  1:
 RMSU=  1.42D-06    CP:  9.59D-01  1.41D+00  9.21D-01  8.00D-01  1.20D+00
                    CP:  1.58D+00  2.07D+00  1.78D+00  1.30D+00
 E= -1771.70194023945     Delta-E=       -0.000004564921 Rises=F Damp=F
 DIIS: error= 1.72D-05 at cycle  10 NSaved=  10.
 NSaved=10 IEnMin=10 EnMin= -1771.70194023945     IErMin=10 ErrMin= 1.72D-05
 ErrMax= 1.72D-05  0.00D+00 EMaxC= 1.00D-01 BMatC= 1.40D-06 BMatP= 4.41D-06
 IDIUse=1 WtCom= 1.00D+00 WtEn= 0.00D+00
 Coeff-Com: -0.594D-03 0.134D-02 0.527D-02 0.893D-02 0.120D-01-0.959D-02
 Coeff-Com: -0.133D+00-0.411D-01 0.465D+00 0.692D+00
 Coeff:     -0.594D-03 0.134D-02 0.527D-02 0.893D-02 0.120D-01-0.959D-02
 Coeff:     -0.133D+00-0.411D-01 0.465D+00 0.692D+00
 Gap=     0.138 Goal=   None    Shift=    0.000
 Gap=     0.150 Goal=   None    Shift=    0.000
 RMSDP=1.06D-06 MaxDP=1.57D-04 DE=-4.56D-06 OVMax= 4.79D-04

 Cycle  11  Pass 1  IDiag  1:
 RMSU=  5.69D-07    CP:  9.59D-01  1.41D+00  9.20D-01  8.02D-01  1.20D+00
                    CP:  1.59D+00  2.07D+00  1.87D+00  1.43D+00  1.24D+00
 E= -1771.70194094823     Delta-E=       -0.000000708777 Rises=F Damp=F
 DIIS: error= 7.98D-06 at cycle  11 NSaved=  11.
 NSaved=11 IEnMin=11 EnMin= -1771.70194094823     IErMin=11 ErrMin= 7.98D-06
 ErrMax= 7.98D-06  0.00D+00 EMaxC= 1.00D-01 BMatC= 1.83D-07 BMatP= 1.40D-06
 IDIUse=1 WtCom= 1.00D+00 WtEn= 0.00D+00
 Coeff-Com: -0.125D-03 0.236D-03 0.131D-02 0.274D-02 0.668D-02 0.100D-01
 Coeff-Com: -0.282D-01-0.505D-01-0.404D-02 0.221D+00 0.841D+00
 Coeff:     -0.125D-03 0.236D-03 0.131D-02 0.274D-02 0.668D-02 0.100D-01
 Coeff:     -0.282D-01-0.505D-01-0.404D-02 0.221D+00 0.841D+00
 Gap=     0.138 Goal=   None    Shift=    0.000
 Gap=     0.150 Goal=   None    Shift=    0.000
 RMSDP=5.03D-07 MaxDP=5.57D-05 DE=-7.09D-07 OVMax= 2.81D-04

 Cycle  12  Pass 1  IDiag  1:
 RMSU=  3.22D-07    CP:  9.59D-01  1.41D+00  9.20D-01  8.02D-01  1.20D+00
                    CP:  1.60D+00  2.07D+00  1.89D+00  1.49D+00  1.37D+00
                    CP:  1.43D+00
 E= -1771.70194114653     Delta-E=       -0.000000198302 Rises=F Damp=F
 DIIS: error= 6.68D-06 at cycle  12 NSaved=  12.
 NSaved=12 IEnMin=12 EnMin= -1771.70194114653     IErMin=12 ErrMin= 6.68D-06
 ErrMax= 6.68D-06  0.00D+00 EMaxC= 1.00D-01 BMatC= 5.95D-08 BMatP= 1.83D-07
 IDIUse=1 WtCom= 1.00D+00 WtEn= 0.00D+00
 Coeff-Com:  0.900D-04-0.215D-03-0.739D-03-0.117D-02-0.564D-03 0.508D-02
 Coeff-Com:  0.164D-01-0.141D-03-0.101D+00-0.817D-01 0.269D+00 0.895D+00
 Coeff:      0.900D-04-0.215D-03-0.739D-03-0.117D-02-0.564D-03 0.508D-02
 Coeff:      0.164D-01-0.141D-03-0.101D+00-0.817D-01 0.269D+00 0.895D+00
 Gap=     0.138 Goal=   None    Shift=    0.000
 Gap=     0.150 Goal=   None    Shift=    0.000
 RMSDP=3.48D-07 MaxDP=4.03D-05 DE=-1.98D-07 OVMax= 2.85D-04

 Cycle  13  Pass 1  IDiag  1:
 RMSU=  1.71D-07    CP:  9.59D-01  1.41D+00  9.20D-01  8.02D-01  1.20D+00
                    CP:  1.60D+00  2.06D+00  1.89D+00  1.50D+00  1.47D+00
                    CP:  1.77D+00  1.42D+00
 E= -1771.70194123833     Delta-E=       -0.000000091808 Rises=F Damp=F
 DIIS: error= 3.40D-06 at cycle  13 NSaved=  13.
 NSaved=13 IEnMin=13 EnMin= -1771.70194123833     IErMin=13 ErrMin= 3.40D-06
 ErrMax= 3.40D-06  0.00D+00 EMaxC= 1.00D-01 BMatC= 2.54D-08 BMatP= 5.95D-08
 IDIUse=1 WtCom= 1.00D+00 WtEn= 0.00D+00
 Coeff-Com:  0.748D-04-0.158D-03-0.725D-03-0.141D-02-0.224D-02-0.992D-03
 Coeff-Com:  0.148D-01 0.188D-01-0.443D-01-0.105D+00-0.168D+00 0.387D+00
 Coeff-Com:  0.903D+00
 Coeff:      0.748D-04-0.158D-03-0.725D-03-0.141D-02-0.224D-02-0.992D-03
 Coeff:      0.148D-01 0.188D-01-0.443D-01-0.105D+00-0.168D+00 0.387D+00
 Coeff:      0.903D+00
 Gap=     0.138 Goal=   None    Shift=    0.000
 Gap=     0.150 Goal=   None    Shift=    0.000
 RMSDP=2.58D-07 MaxDP=2.38D-05 DE=-9.18D-08 OVMax= 2.17D-04

 Cycle  14  Pass 1  IDiag  1:
 RMSU=  9.43D-08    CP:  9.59D-01  1.41D+00  9.20D-01  8.02D-01  1.20D+00
                    CP:  1.59D+00  2.06D+00  1.90D+00  1.49D+00  1.54D+00
                    CP:  1.99D+00  1.87D+00  1.63D+00
 E= -1771.70194128518     Delta-E=       -0.000000046847 Rises=F Damp=F
 DIIS: error= 2.13D-06 at cycle  14 NSaved=  14.
 NSaved=14 IEnMin=14 EnMin= -1771.70194128518     IErMin=14 ErrMin= 2.13D-06
 ErrMax= 2.13D-06  0.00D+00 EMaxC= 1.00D-01 BMatC= 8.10D-09 BMatP= 2.54D-08
 IDIUse=1 WtCom= 1.00D+00 WtEn= 0.00D+00
 Coeff-Com: -0.149D-04 0.409D-04 0.791D-04 0.815D-05-0.516D-03-0.277D-02
 Coeff-Com: -0.269D-02 0.769D-02 0.285D-01-0.139D-02-0.184D+00-0.238D+00
 Coeff-Com:  0.312D+00 0.108D+01
 Coeff:     -0.149D-04 0.409D-04 0.791D-04 0.815D-05-0.516D-03-0.277D-02
 Coeff:     -0.269D-02 0.769D-02 0.285D-01-0.139D-02-0.184D+00-0.238D+00
 Coeff:      0.312D+00 0.108D+01
 Gap=     0.138 Goal=   None    Shift=    0.000
 Gap=     0.150 Goal=   None    Shift=    0.000
 RMSDP=2.16D-07 MaxDP=2.10D-05 DE=-4.68D-08 OVMax= 1.94D-04

 Cycle  15  Pass 1  IDiag  1:
 RMSU=  6.56D-08    CP:  9.59D-01  1.41D+00  9.20D-01  8.02D-01  1.20D+00
                    CP:  1.59D+00  2.06D+00  1.89D+00  1.50D+00  1.57D+00
                    CP:  2.14D+00  2.17D+00  2.44D+00  1.60D+00
 E= -1771.70194130542     Delta-E=       -0.000000020241 Rises=F Damp=F
 DIIS: error= 9.46D-07 at cycle  15 NSaved=  15.
 NSaved=15 IEnMin=15 EnMin= -1771.70194130542     IErMin=15 ErrMin= 9.46D-07
 ErrMax= 9.46D-07  0.00D+00 EMaxC= 1.00D-01 BMatC= 2.87D-09 BMatP= 8.10D-09
 IDIUse=1 WtCom= 1.00D+00 WtEn= 0.00D+00
 Coeff-Com: -0.277D-04 0.636D-04 0.245D-03 0.399D-03 0.350D-03-0.986D-03
 Coeff-Com: -0.551D-02-0.216D-02 0.251D-01 0.312D-01-0.270D-01-0.217D+00
 Coeff-Com: -0.145D+00 0.517D+00 0.823D+00
 Coeff:     -0.277D-04 0.636D-04 0.245D-03 0.399D-03 0.350D-03-0.986D-03
 Coeff:     -0.551D-02-0.216D-02 0.251D-01 0.312D-01-0.270D-01-0.217D+00
 Coeff:     -0.145D+00 0.517D+00 0.823D+00
 Gap=     0.138 Goal=   None    Shift=    0.000
 Gap=     0.150 Goal=   None    Shift=    0.000
 RMSDP=9.30D-08 MaxDP=8.35D-06 DE=-2.02D-08 OVMax= 6.67D-05

 Cycle  16  Pass 1  IDiag  1:
 RMSU=  2.70D-08    CP:  9.59D-01  1.41D+00  9.20D-01  8.02D-01  1.20D+00
                    CP:  1.59D+00  2.06D+00  1.89D+00  1.50D+00  1.58D+00
                    CP:  2.18D+00  2.30D+00  2.75D+00  2.05D+00  1.29D+00
 E= -1771.70194130949     Delta-E=       -0.000000004070 Rises=F Damp=F
 DIIS: error= 3.21D-07 at cycle  16 NSaved=  16.
 NSaved=16 IEnMin=16 EnMin= -1771.70194130949     IErMin=16 ErrMin= 3.21D-07
 ErrMax= 3.21D-07  0.00D+00 EMaxC= 1.00D-01 BMatC= 6.00D-10 BMatP= 2.87D-09
 IDIUse=1 WtCom= 1.00D+00 WtEn= 0.00D+00
 Coeff-Com: -0.365D-05 0.706D-05 0.624D-04 0.134D-03 0.227D-03 0.488D-03
 Coeff-Com: -0.122D-02-0.327D-02 0.668D-03 0.122D-01 0.517D-01-0.712D-02
 Coeff-Com: -0.163D+00-0.151D+00 0.303D+00 0.957D+00
 Coeff:     -0.365D-05 0.706D-05 0.624D-04 0.134D-03 0.227D-03 0.488D-03
 Coeff:     -0.122D-02-0.327D-02 0.668D-03 0.122D-01 0.517D-01-0.712D-02
 Coeff:     -0.163D+00-0.151D+00 0.303D+00 0.957D+00
 Gap=     0.138 Goal=   None    Shift=    0.000
 Gap=     0.150 Goal=   None    Shift=    0.000
 RMSDP=5.02D-08 MaxDP=4.74D-06 DE=-4.07D-09 OVMax= 3.48D-05

 Cycle  17  Pass 1  IDiag  1:
 RMSU=  1.47D-08    CP:  9.59D-01  1.41D+00  9.20D-01  8.02D-01  1.20D+00
                    CP:  1.59D+00  2.06D+00  1.89D+00  1.50D+00  1.59D+00
                    CP:  2.20D+00  2.35D+00  2.94D+00  2.26D+00  1.58D+00
                    CP:  1.41D+00
 E= -1771.70194131025     Delta-E=       -0.000000000761 Rises=F Damp=F
 DIIS: error= 1.02D-07 at cycle  17 NSaved=  17.
 NSaved=17 IEnMin=17 EnMin= -1771.70194131025     IErMin=17 ErrMin= 1.02D-07
 ErrMax= 1.02D-07  0.00D+00 EMaxC= 1.00D-01 BMatC= 8.32D-11 BMatP= 6.00D-10
 IDIUse=1 WtCom= 1.00D+00 WtEn= 0.00D+00
 Coeff-Com:  0.348D-05-0.833D-05-0.199D-04-0.226D-04 0.316D-05 0.323D-03
 Coeff-Com:  0.550D-03-0.616D-03-0.366D-02-0.240D-02 0.177D-01 0.311D-01
 Coeff-Com: -0.157D-01-0.117D+00-0.538D-01 0.255D+00 0.889D+00
 Coeff:      0.348D-05-0.833D-05-0.199D-04-0.226D-04 0.316D-05 0.323D-03
 Coeff:      0.550D-03-0.616D-03-0.366D-02-0.240D-02 0.177D-01 0.311D-01
 Coeff:     -0.157D-01-0.117D+00-0.538D-01 0.255D+00 0.889D+00
 Gap=     0.138 Goal=   None    Shift=    0.000
 Gap=     0.150 Goal=   None    Shift=    0.000
 RMSDP=1.23D-08 MaxDP=1.23D-06 DE=-7.61D-10 OVMax= 6.67D-06

 Cycle  18  Pass 1  IDiag  1:
 RMSU=  5.80D-09    CP:  9.59D-01  1.41D+00  9.20D-01  8.02D-01  1.20D+00
                    CP:  1.59D+00  2.06D+00  1.89D+00  1.50D+00  1.59D+00
                    CP:  2.21D+00  2.36D+00  2.96D+00  2.29D+00  1.65D+00
                    CP:  1.63D+00  1.27D+00
 E= -1771.70194131057     Delta-E=       -0.000000000311 Rises=F Damp=F
 DIIS: error= 5.77D-08 at cycle  18 NSaved=  18.
 NSaved=18 IEnMin=18 EnMin= -1771.70194131057     IErMin=18 ErrMin= 5.77D-08
 ErrMax= 5.77D-08  0.00D+00 EMaxC= 1.00D-01 BMatC= 2.15D-11 BMatP= 8.32D-11
 IDIUse=1 WtCom= 1.00D+00 WtEn= 0.00D+00
 Coeff-Com:  0.206D-05-0.458D-05-0.199D-04-0.345D-04-0.452D-04 0.457D-04
 Coeff-Com:  0.449D-03 0.360D-03-0.150D-02-0.338D-02-0.204D-02 0.144D-01
 Coeff-Com:  0.243D-01-0.231D-01-0.817D-01-0.768D-01 0.375D+00 0.774D+00
 Coeff:      0.206D-05-0.458D-05-0.199D-04-0.345D-04-0.452D-04 0.457D-04
 Coeff:      0.449D-03 0.360D-03-0.150D-02-0.338D-02-0.204D-02 0.144D-01
 Coeff:      0.243D-01-0.231D-01-0.817D-01-0.768D-01 0.375D+00 0.774D+00
 Gap=     0.138 Goal=   None    Shift=    0.000
 Gap=     0.150 Goal=   None    Shift=    0.000
 RMSDP=4.79D-09 MaxDP=4.41D-07 DE=-3.11D-10 OVMax= 2.14D-06

 Error on total polarization charges =  0.02700
 SCF Done:  E(UM062X) =  -1771.70194131     A.U. after   18 cycles
            NFock= 18  Conv=0.48D-08     -V/T= 2.0055
 <Sx>= 0.0000 <Sy>= 0.0000 <Sz>= 0.5000 <S**2>= 0.7993 S= 0.5244
 <L.S>= 0.000000000000E+00
 KE= 1.762036519848D+03 PE=-1.251640008738D+04 EE= 4.802820066513D+03
 Annihilation of the first spin contaminant:
 S**2 before annihilation     0.7993,   after     0.7519
 Leave Link  502 at Thu Nov  6 05:00:05 2025, MaxMem= 30870077440 cpu:           87211.2 elap:            1380.6
 (Enter /public/software/gauss/g16/l601.exe)
 Copying SCF densities to generalized density rwf, IOpCl= 1 IROHF=0.

 **********************************************************************

            Population analysis using the SCF density.

 **********************************************************************

 Orbital symmetries:
 Alpha Orbitals:
       Occupied  (A) (A) (A) (A) (A) (A) (A) (A) (A) (A) (A) (A)
                 (A) (A) (A) (A) (A) (A) (A) (A) (A) (A) (A) (A)
                 (A) (A) (A) (A) (A) (A) (A) (A) (A) (A) (A) (A)
                 (A) (A) (A) (A) (A) (A) (A) (A) (A) (A) (A) (A)
                 (A) (A) (A) (A) (A) (A) (A) (A) (A) (A) (A) (A)
                 (A) (A) (A) (A) (A) (A) (A) (A) (A) (A) (A) (A)
                 (A) (A) (A) (A) (A) (A) (A) (A) (A) (A) (A) (A)
                 (A) (A) (A) (A) (A) (A) (A) (A) (A) (A) (A) (A)
                 (A) (A) (A) (A) (A) (A) (A) (A) (A) (A) (A) (A)
                 (A) (A) (A) (A) (A) (A) (A) (A) (A) (A) (A) (A)
                 (A) (A) (A) (A) (A) (A) (A) (A) (A) (A) (A) (A)
                 (A) (A) (A) (A) (A) (A) (A) (A) (A) (A)
       Virtual   (A) (A) (A) (A) (A) (A) (A) (A) (A) (A) (A) (A)
                 (A) (A) (A) (A) (A) (A) (A) (A) (A) (A) (A) (A)
                 (A) (A) (A) (A) (A) (A) (A) (A) (A) (A) (A) (A)
                 (A) (A) (A) (A) (A) (A) (A) (A) (A) (A) (A) (A)
                 (A) (A) (A) (A) (A) (A) (A) (A) (A) (A) (A) (A)
                 (A) (A) (A) (A) (A) (A) (A) (A) (A) (A) (A) (A)
                 (A) (A) (A) (A) (A) (A) (A) (A) (A) (A) (A) (A)
                 (A) (A) (A) (A) (A) (A) (A) (A) (A) (A) (A) (A)
                 (A) (A) (A) (A) (A) (A) (A) (A) (A) (A) (A) (A)
                 (A) (A) (A) (A) (A) (A) (A) (A) (A) (A) (A) (A)
                 (A) (A) (A) (A) (A) (A) (A) (A) (A) (A) (A) (A)
                 (A) (A) (A) (A) (A) (A) (A) (A) (A) (A) (A) (A)
                 (A) (A) (A) (A) (A) (A) (A) (A) (A) (A) (A) (A)
                 (A) (A) (A) (A) (A) (A) (A) (A) (A) (A) (A) (A)
                 (A) (A) (A) (A) (A) (A) (A) (A) (A) (A) (A) (A)
                 (A) (A) (A) (A) (A) (A) (A) (A) (A) (A) (A) (A)
                 (A) (A) (A) (A) (A) (A) (A) (A) (A) (A) (A) (A)
                 (A) (A) (A) (A) (A) (A) (A) (A) (A) (A) (A) (A)
                 (A) (A) (A) (A) (A) (A) (A) (A) (A) (A) (A) (A)
                 (A) (A) (A) (A) (A) (A) (A) (A) (A) (A) (A) (A)
                 (A) (A) (A) (A) (A) (A) (A) (A) (A) (A) (A) (A)
                 (A) (A) (A) (A) (A) (A) (A) (A) (A) (A) (A) (A)
                 (A) (A) (A) (A) (A) (A) (A) (A) (A) (A) (A) (A)
                 (A) (A) (A) (A) (A) (A) (A) (A) (A) (A) (A) (A)
                 (A) (A) (A) (A) (A) (A) (A) (A) (A) (A) (A) (A)
                 (A) (A) (A) (A) (A) (A) (A) (A) (A) (A) (A) (A)
                 (A) (A) (A) (A) (A) (A) (A) (A) (A) (A) (A) (A)
                 (A) (A) (A) (A) (A) (A) (A) (A) (A) (A) (A) (A)
                 (A) (A) (A) (A) (A) (A) (A) (A) (A) (A) (A) (A)
                 (A) (A) (A) (A) (A) (A) (A) (A) (A) (A) (A) (A)
                 (A) (A) (A) (A) (A) (A) (A) (A) (A) (A) (A) (A)
                 (A) (A) (A) (A) (A) (A) (A) (A) (A) (A) (A) (A)
                 (A) (A) (A) (A) (A) (A) (A) (A) (A) (A) (A) (A)
                 (A) (A) (A) (A) (A) (A) (A) (A) (A) (A) (A) (A)
                 (A) (A) (A) (A) (A) (A) (A) (A) (A) (A) (A) (A)
                 (A) (A) (A) (A) (A) (A) (A) (A) (A) (A) (A) (A)
                 (A) (A) (A) (A) (A) (A) (A) (A) (A) (A) (A) (A)
                 (A) (A) (A) (A) (A) (A) (A) (A) (A) (A) (A) (A)
                 (A) (A) (A) (A) (A) (A) (A) (A) (A) (A) (A) (A)
                 (A) (A) (A) (A) (A) (A) (A) (A) (A) (A) (A) (A)
                 (A) (A) (A) (A) (A) (A) (A) (A) (A) (A) (A) (A)
                 (A) (A) (A) (A) (A) (A) (A) (A) (A) (A) (A) (A)
                 (A) (A) (A) (A) (A) (A) (A) (A) (A) (A) (A) (A)
                 (A) (A) (A) (A) (A) (A) (A) (A) (A) (A) (A) (A)
                 (A) (A) (A) (A) (A) (A) (A) (A) (A) (A) (A) (A)
                 (A) (A) (A) (A) (A) (A) (A) (A) (A) (A) (A) (A)
                 (A) (A) (A) (A) (A) (A) (A) (A) (A) (A) (A) (A)
                 (A) (A) (A) (A) (A) (A) (A) (A) (A) (A) (A) (A)
                 (A) (A) (A) (A) (A) (A) (A) (A) (A) (A) (A) (A)
                 (A) (A) (A) (A) (A) (A) (A) (A) (A) (A) (A) (A)
                 (A) (A) (A) (A) (A) (A) (A) (A) (A) (A) (A) (A)
                 (A) (A) (A) (A) (A) (A) (A) (A) (A) (A) (A) (A)
                 (A) (A) (A) (A) (A) (A) (A) (A) (A) (A) (A) (A)
                 (A) (A) (A) (A) (A) (A) (A) (A) (A) (A) (A) (A)
                 (A) (A) (A) (A) (A) (A) (A) (A) (A) (A) (A) (A)
                 (A) (A) (A) (A) (A) (A) (A) (A) (A) (A) (A) (A)
                 (A) (A) (A) (A) (A) (A) (A) (A) (A) (A) (A) (A)
                 (A) (A) (A) (A) (A) (A) (A) (A) (A) (A) (A) (A)
                 (A) (A) (A) (A) (A) (A) (A) (A) (A) (A) (A) (A)
                 (A) (A) (A) (A) (A) (A) (A) (A) (A) (A) (A) (A)
                 (A) (A) (A) (A) (A) (A) (A) (A) (A) (A) (A) (A)
                 (A) (A) (A) (A) (A) (A) (A) (A) (A) (A) (A) (A)
                 (A) (A) (A) (A) (A) (A) (A) (A) (A) (A) (A) (A)
                 (A) (A) (A) (A) (A) (A) (A) (A) (A) (A) (A) (A)
                 (A) (A) (A) (A) (A) (A) (A) (A) (A) (A) (A) (A)
                 (A) (A) (A) (A) (A) (A) (A) (A) (A) (A) (A) (A)
                 (A) (A) (A) (A) (A) (A) (A) (A) (A) (A) (A) (A)
                 (A) (A) (A) (A) (A) (A) (A) (A) (A) (A) (A) (A)
                 (A) (A) (A) (A) (A) (A) (A) (A) (A) (A) (A) (A)
                 (A) (A) (A) (A) (A) (A) (A) (A) (A) (A) (A) (A)
                 (A) (A) (A) (A) (A) (A) (A) (A) (A) (A) (A) (A)
                 (A) (A) (A) (A) (A) (A) (A) (A) (A) (A) (A) (A)
                 (A) (A) (A) (A) (A) (A) (A) (A) (A) (A) (A) (A)
                 (A) (A) (A) (A) (A) (A) (A) (A) (A) (A) (A) (A)
                 (A) (A) (A) (A) (A) (A) (A) (A) (A) (A) (A) (A)
                 (A) (A) (A) (A) (A) (A) (A) (A) (A) (A) (A) (A)
                 (A) (A) (A) (A) (A) (A) (A) (A) (A) (A) (A) (A)
                 (A) (A) (A) (A) (A) (A) (A) (A) (A) (A) (A) (A)
                 (A) (A) (A) (A) (A) (A) (A) (A) (A) (A) (A) (A)
                 (A) (A) (A) (A) (A) (A) (A) (A) (A) (A) (A) (A)
                 (A) (A) (A) (A) (A) (A) (A) (A) (A) (A) (A) (A)
                 (A) (A) (A) (A) (A) (A) (A) (A) (A) (A) (A) (A)
                 (A) (A) (A) (A) (A) (A) (A) (A) (A) (A) (A) (A)
                 (A) (A) (A) (A) (A) (A) (A) (A) (A) (A) (A) (A)
                 (A) (A) (A) (A) (A) (A) (A) (A) (A) (A) (A) (A)
                 (A) (A) (A) (A) (A) (A) (A) (A) (A) (A) (A) (A)
                 (A) (A) (A) (A) (A) (A) (A) (A) (A) (A) (A) (A)
                 (A) (A) (A) (A) (A) (A) (A) (A) (A) (A) (A) (A)
                 (A) (A) (A) (A) (A) (A) (A) (A) (A) (A) (A) (A)
                 (A) (A) (A) (A) (A) (A) (A) (A) (A) (A) (A) (A)
                 (A) (A) (A) (A) (A) (A) (A) (A) (A) (A) (A) (A)
                 (A) (A) (A) (A) (A) (A) (A) (A) (A) (A) (A) (A)
                 (A) (A) (A) (A) (A) (A) (A) (A) (A) (A) (A) (A)
                 (A) (A) (A) (A) (A) (A) (A) (A) (A) (A) (A) (A)
                 (A) (A) (A) (A) (A) (A) (A) (A) (A) (A) (A) (A)
                 (A) (A) (A) (A) (A) (A) (A) (A) (A) (A) (A) (A)
                 (A) (A) (A) (A) (A) (A) (A) (A) (A) (A) (A) (A)
                 (A) (A) (A) (A) (A) (A) (A) (A) (A) (A) (A) (A)
                 (A) (A) (A) (A) (A) (A) (A) (A) (A) (A) (A) (A)
                 (A) (A) (A) (A) (A) (A) (A) (A) (A) (A) (A) (A)
                 (A) (A) (A) (A) (A) (A) (A) (A) (A) (A) (A) (A)
                 (A) (A) (A) (A) (A) (A) (A) (A) (A) (A) (A) (A)
                 (A) (A) (A) (A) (A) (A) (A) (A) (A) (A) (A) (A)
                 (A) (A) (A) (A) (A) (A) (A) (A) (A) (A) (A) (A)
                 (A) (A) (A) (A) (A) (A) (A) (A) (A) (A) (A) (A)
                 (A) (A) (A) (A) (A) (A) (A) (A) (A) (A) (A) (A)
                 (A) (A) (A) (A) (A) (A) (A) (A) (A) (A) (A) (A)
                 (A) (A) (A) (A) (A) (A) (A) (A) (A) (A) (A) (A)
                 (A) (A) (A) (A) (A) (A) (A) (A) (A) (A) (A) (A)
                 (A) (A) (A) (A) (A) (A) (A) (A) (A) (A) (A) (A)
                 (A) (A) (A) (A) (A) (A) (A) (A) (A) (A) (A) (A)
                 (A) (A) (A) (A) (A) (A) (A) (A) (A) (A) (A) (A)
                 (A) (A) (A) (A) (A) (A) (A) (A) (A) (A) (A) (A)
                 (A) (A) (A) (A) (A) (A) (A) (A) (A) (A) (A) (A)
                 (A) (A) (A) (A) (A) (A) (A) (A) (A) (A) (A) (A)
                 (A) (A) (A) (A) (A) (A) (A) (A) (A) (A) (A) (A)
                 (A) (A) (A) (A) (A) (A) (A) (A) (A) (A) (A) (A)
                 (A) (A) (A) (A) (A) (A) (A) (A) (A) (A) (A) (A)
                 (A) (A) (A) (A) (A) (A) (A) (A) (A) (A) (A) (A)
                 (A) (A) (A) (A) (A) (A) (A) (A) (A) (A) (A) (A)
                 (A) (A) (A) (A) (A) (A) (A) (A) (A) (A) (A) (A)
                 (A) (A) (A) (A) (A) (A) (A) (A) (A) (A) (A) (A)
                 (A) (A) (A) (A) (A) (A) (A) (A) (A) (A) (A) (A)
                 (A) (A) (A) (A) (A) (A) (A) (A) (A) (A) (A) (A)
                 (A) (A) (A) (A) (A)
 Beta  Orbitals:
       Occupied  (A) (A) (A) (A) (A) (A) (A) (A) (A) (A) (A) (A)
                 (A) (A) (A) (A) (A) (A) (A) (A) (A) (A) (A) (A)
                 (A) (A) (A) (A) (A) (A) (A) (A) (A) (A) (A) (A)
                 (A) (A) (A) (A) (A) (A) (A) (A) (A) (A) (A) (A)
                 (A) (A) (A) (A) (A) (A) (A) (A) (A) (A) (A) (A)
                 (A) (A) (A) (A) (A) (A) (A) (A) (A) (A) (A) (A)
                 (A) (A) (A) (A) (A) (A) (A) (A) (A) (A) (A) (A)
                 (A) (A) (A) (A) (A) (A) (A) (A) (A) (A) (A) (A)
                 (A) (A) (A) (A) (A) (A) (A) (A) (A) (A) (A) (A)
                 (A) (A) (A) (A) (A) (A) (A) (A) (A) (A) (A) (A)
                 (A) (A) (A) (A) (A) (A) (A) (A) (A) (A) (A) (A)
                 (A) (A) (A) (A) (A) (A) (A) (A) (A)
       Virtual   (A) (A) (A) (A) (A) (A) (A) (A) (A) (A) (A) (A)
                 (A) (A) (A) (A) (A) (A) (A) (A) (A) (A) (A) (A)
                 (A) (A) (A) (A) (A) (A) (A) (A) (A) (A) (A) (A)
                 (A) (A) (A) (A) (A) (A) (A) (A) (A) (A) (A) (A)
                 (A) (A) (A) (A) (A) (A) (A) (A) (A) (A) (A) (A)
                 (A) (A) (A) (A) (A) (A) (A) (A) (A) (A) (A) (A)
                 (A) (A) (A) (A) (A) (A) (A) (A) (A) (A) (A) (A)
                 (A) (A) (A) (A) (A) (A) (A) (A) (A) (A) (A) (A)
                 (A) (A) (A) (A) (A) (A) (A) (A) (A) (A) (A) (A)
                 (A) (A) (A) (A) (A) (A) (A) (A) (A) (A) (A) (A)
                 (A) (A) (A) (A) (A) (A) (A) (A) (A) (A) (A) (A)
                 (A) (A) (A) (A) (A) (A) (A) (A) (A) (A) (A) (A)
                 (A) (A) (A) (A) (A) (A) (A) (A) (A) (A) (A) (A)
                 (A) (A) (A) (A) (A) (A) (A) (A) (A) (A) (A) (A)
                 (A) (A) (A) (A) (A) (A) (A) (A) (A) (A) (A) (A)
                 (A) (A) (A) (A) (A) (A) (A) (A) (A) (A) (A) (A)
                 (A) (A) (A) (A) (A) (A) (A) (A) (A) (A) (A) (A)
                 (A) (A) (A) (A) (A) (A) (A) (A) (A) (A) (A) (A)
                 (A) (A) (A) (A) (A) (A) (A) (A) (A) (A) (A) (A)
                 (A) (A) (A) (A) (A) (A) (A) (A) (A) (A) (A) (A)
                 (A) (A) (A) (A) (A) (A) (A) (A) (A) (A) (A) (A)
                 (A) (A) (A) (A) (A) (A) (A) (A) (A) (A) (A) (A)
                 (A) (A) (A) (A) (A) (A) (A) (A) (A) (A) (A) (A)
                 (A) (A) (A) (A) (A) (A) (A) (A) (A) (A) (A) (A)
                 (A) (A) (A) (A) (A) (A) (A) (A) (A) (A) (A) (A)
                 (A) (A) (A) (A) (A) (A) (A) (A) (A) (A) (A) (A)
                 (A) (A) (A) (A) (A) (A) (A) (A) (A) (A) (A) (A)
                 (A) (A) (A) (A) (A) (A) (A) (A) (A) (A) (A) (A)
                 (A) (A) (A) (A) (A) (A) (A) (A) (A) (A) (A) (A)
                 (A) (A) (A) (A) (A) (A) (A) (A) (A) (A) (A) (A)
                 (A) (A) (A) (A) (A) (A) (A) (A) (A) (A) (A) (A)
                 (A) (A) (A) (A) (A) (A) (A) (A) (A) (A) (A) (A)
                 (A) (A) (A) (A) (A) (A) (A) (A) (A) (A) (A) (A)
                 (A) (A) (A) (A) (A) (A) (A) (A) (A) (A) (A) (A)
                 (A) (A) (A) (A) (A) (A) (A) (A) (A) (A) (A) (A)
                 (A) (A) (A) (A) (A) (A) (A) (A) (A) (A) (A) (A)
                 (A) (A) (A) (A) (A) (A) (A) (A) (A) (A) (A) (A)
                 (A) (A) (A) (A) (A) (A) (A) (A) (A) (A) (A) (A)
                 (A) (A) (A) (A) (A) (A) (A) (A) (A) (A) (A) (A)
                 (A) (A) (A) (A) (A) (A) (A) (A) (A) (A) (A) (A)
                 (A) (A) (A) (A) (A) (A) (A) (A) (A) (A) (A) (A)
                 (A) (A) (A) (A) (A) (A) (A) (A) (A) (A) (A) (A)
                 (A) (A) (A) (A) (A) (A) (A) (A) (A) (A) (A) (A)
                 (A) (A) (A) (A) (A) (A) (A) (A) (A) (A) (A) (A)
                 (A) (A) (A) (A) (A) (A) (A) (A) (A) (A) (A) (A)
                 (A) (A) (A) (A) (A) (A) (A) (A) (A) (A) (A) (A)
                 (A) (A) (A) (A) (A) (A) (A) (A) (A) (A) (A) (A)
                 (A) (A) (A) (A) (A) (A) (A) (A) (A) (A) (A) (A)
                 (A) (A) (A) (A) (A) (A) (A) (A) (A) (A) (A) (A)
                 (A) (A) (A) (A) (A) (A) (A) (A) (A) (A) (A) (A)
                 (A) (A) (A) (A) (A) (A) (A) (A) (A) (A) (A) (A)
                 (A) (A) (A) (A) (A) (A) (A) (A) (A) (A) (A) (A)
                 (A) (A) (A) (A) (A) (A) (A) (A) (A) (A) (A) (A)
                 (A) (A) (A) (A) (A) (A) (A) (A) (A) (A) (A) (A)
                 (A) (A) (A) (A) (A) (A) (A) (A) (A) (A) (A) (A)
                 (A) (A) (A) (A) (A) (A) (A) (A) (A) (A) (A) (A)
                 (A) (A) (A) (A) (A) (A) (A) (A) (A) (A) (A) (A)
                 (A) (A) (A) (A) (A) (A) (A) (A) (A) (A) (A) (A)
                 (A) (A) (A) (A) (A) (A) (A) (A) (A) (A) (A) (A)
                 (A) (A) (A) (A) (A) (A) (A) (A) (A) (A) (A) (A)
                 (A) (A) (A) (A) (A) (A) (A) (A) (A) (A) (A) (A)
                 (A) (A) (A) (A) (A) (A) (A) (A) (A) (A) (A) (A)
                 (A) (A) (A) (A) (A) (A) (A) (A) (A) (A) (A) (A)
                 (A) (A) (A) (A) (A) (A) (A) (A) (A) (A) (A) (A)
                 (A) (A) (A) (A) (A) (A) (A) (A) (A) (A) (A) (A)
                 (A) (A) (A) (A) (A) (A) (A) (A) (A) (A) (A) (A)
                 (A) (A) (A) (A) (A) (A) (A) (A) (A) (A) (A) (A)
                 (A) (A) (A) (A) (A) (A) (A) (A) (A) (A) (A) (A)
                 (A) (A) (A) (A) (A) (A) (A) (A) (A) (A) (A) (A)
                 (A) (A) (A) (A) (A) (A) (A) (A) (A) (A) (A) (A)
                 (A) (A) (A) (A) (A) (A) (A) (A) (A) (A) (A) (A)
                 (A) (A) (A) (A) (A) (A) (A) (A) (A) (A) (A) (A)
                 (A) (A) (A) (A) (A) (A) (A) (A) (A) (A) (A) (A)
                 (A) (A) (A) (A) (A) (A) (A) (A) (A) (A) (A) (A)
                 (A) (A) (A) (A) (A) (A) (A) (A) (A) (A) (A) (A)
                 (A) (A) (A) (A) (A) (A) (A) (A) (A) (A) (A) (A)
                 (A) (A) (A) (A) (A) (A) (A) (A) (A) (A) (A) (A)
                 (A) (A) (A) (A) (A) (A) (A) (A) (A) (A) (A) (A)
                 (A) (A) (A) (A) (A) (A) (A) (A) (A) (A) (A) (A)
                 (A) (A) (A) (A) (A) (A) (A) (A) (A) (A) (A) (A)
                 (A) (A) (A) (A) (A) (A) (A) (A) (A) (A) (A) (A)
                 (A) (A) (A) (A) (A) (A) (A) (A) (A) (A) (A) (A)
                 (A) (A) (A) (A) (A) (A) (A) (A) (A) (A) (A) (A)
                 (A) (A) (A) (A) (A) (A) (A) (A) (A) (A) (A) (A)
                 (A) (A) (A) (A) (A) (A) (A) (A) (A) (A) (A) (A)
                 (A) (A) (A) (A) (A) (A) (A) (A) (A) (A) (A) (A)
                 (A) (A) (A) (A) (A) (A) (A) (A) (A) (A) (A) (A)
                 (A) (A) (A) (A) (A) (A) (A) (A) (A) (A) (A) (A)
                 (A) (A) (A) (A) (A) (A) (A) (A) (A) (A) (A) (A)
                 (A) (A) (A) (A) (A) (A) (A) (A) (A) (A) (A) (A)
                 (A) (A) (A) (A) (A) (A) (A) (A) (A) (A) (A) (A)
                 (A) (A) (A) (A) (A) (A) (A) (A) (A) (A) (A) (A)
                 (A) (A) (A) (A) (A) (A) (A) (A) (A) (A) (A) (A)
                 (A) (A) (A) (A) (A) (A) (A) (A) (A) (A) (A) (A)
                 (A) (A) (A) (A) (A) (A) (A) (A) (A) (A) (A) (A)
                 (A) (A) (A) (A) (A) (A) (A) (A) (A) (A) (A) (A)
                 (A) (A) (A) (A) (A) (A) (A) (A) (A) (A) (A) (A)
                 (A) (A) (A) (A) (A) (A) (A) (A) (A) (A) (A) (A)
                 (A) (A) (A) (A) (A) (A) (A) (A) (A) (A) (A) (A)
                 (A) (A) (A) (A) (A) (A) (A) (A) (A) (A) (A) (A)
                 (A) (A) (A) (A) (A) (A) (A) (A) (A) (A) (A) (A)
                 (A) (A) (A) (A) (A) (A) (A) (A) (A) (A) (A) (A)
                 (A) (A) (A) (A) (A) (A) (A) (A) (A) (A) (A) (A)
                 (A) (A) (A) (A) (A) (A) (A) (A) (A) (A) (A) (A)
                 (A) (A) (A) (A) (A) (A) (A) (A) (A) (A) (A) (A)
                 (A) (A) (A) (A) (A) (A) (A) (A) (A) (A) (A) (A)
                 (A) (A) (A) (A) (A) (A) (A) (A) (A) (A) (A) (A)
                 (A) (A) (A) (A) (A) (A) (A) (A) (A) (A) (A) (A)
                 (A) (A) (A) (A) (A) (A) (A) (A) (A) (A) (A) (A)
                 (A) (A) (A) (A) (A) (A) (A) (A) (A) (A) (A) (A)
                 (A) (A) (A) (A) (A) (A) (A) (A) (A) (A) (A) (A)
                 (A) (A) (A) (A) (A) (A) (A) (A) (A) (A) (A) (A)
                 (A) (A) (A) (A) (A) (A) (A) (A) (A) (A) (A) (A)
                 (A) (A) (A) (A) (A) (A) (A) (A) (A) (A) (A) (A)
                 (A) (A) (A) (A) (A) (A) (A) (A) (A) (A) (A) (A)
                 (A) (A) (A) (A) (A) (A) (A) (A) (A) (A) (A) (A)
                 (A) (A) (A) (A) (A) (A) (A) (A) (A) (A) (A) (A)
                 (A) (A) (A) (A) (A) (A) (A) (A) (A) (A) (A) (A)
                 (A) (A) (A) (A) (A) (A) (A) (A) (A) (A) (A) (A)
                 (A) (A) (A) (A) (A) (A) (A) (A) (A) (A) (A) (A)
                 (A) (A) (A) (A) (A) (A) (A) (A) (A) (A) (A) (A)
                 (A) (A) (A) (A) (A) (A) (A) (A) (A) (A) (A) (A)
                 (A) (A) (A) (A) (A) (A) (A) (A) (A) (A) (A) (A)
                 (A) (A) (A) (A) (A) (A) (A) (A) (A) (A) (A) (A)
                 (A) (A) (A) (A) (A) (A)
 The electronic state is 2-A.
 Alpha  occ. eigenvalues --  -25.18911 -25.18766 -14.94919 -14.84960 -14.81644
 Alpha  occ. eigenvalues --  -14.75475 -14.75467 -10.60528 -10.56609 -10.56607
 Alpha  occ. eigenvalues --  -10.56478 -10.56477 -10.55748 -10.55563 -10.55560
 Alpha  occ. eigenvalues --  -10.55560 -10.55272 -10.55261 -10.55144 -10.54866
 Alpha  occ. eigenvalues --  -10.54467 -10.54467 -10.54420 -10.54420 -10.54355
 Alpha  occ. eigenvalues --  -10.54354 -10.54298 -10.54297 -10.54262 -10.54262
 Alpha  occ. eigenvalues --  -10.54197 -10.54197 -10.53917 -10.53917 -10.53747
 Alpha  occ. eigenvalues --  -10.53743 -10.52749 -10.52745 -10.52261 -10.52257
 Alpha  occ. eigenvalues --   -7.10904  -1.30565  -1.27779  -1.27303  -1.10627
 Alpha  occ. eigenvalues --   -1.07534  -1.05538  -0.97483  -0.96308  -0.96298
 Alpha  occ. eigenvalues --   -0.91537  -0.89811  -0.89557  -0.88406  -0.87839
 Alpha  occ. eigenvalues --   -0.85751  -0.85311  -0.84458  -0.84227  -0.84116
 Alpha  occ. eigenvalues --   -0.82297  -0.79128  -0.79011  -0.76824  -0.75516
 Alpha  occ. eigenvalues --   -0.72541  -0.71096  -0.70607  -0.69150  -0.68683
 Alpha  occ. eigenvalues --   -0.67790  -0.67244  -0.65376  -0.64630  -0.64247
 Alpha  occ. eigenvalues --   -0.62521  -0.62271  -0.61132  -0.60898  -0.60498
 Alpha  occ. eigenvalues --   -0.59000  -0.58849  -0.58067  -0.57953  -0.56616
 Alpha  occ. eigenvalues --   -0.56089  -0.55881  -0.54126  -0.53624  -0.53273
 Alpha  occ. eigenvalues --   -0.52835  -0.52040  -0.51999  -0.51383  -0.50832
 Alpha  occ. eigenvalues --   -0.50442  -0.50104  -0.49952  -0.49469  -0.49334
 Alpha  occ. eigenvalues --   -0.48912  -0.48449  -0.48389  -0.47843  -0.47683
 Alpha  occ. eigenvalues --   -0.47121  -0.46586  -0.46382  -0.46268  -0.45883
 Alpha  occ. eigenvalues --   -0.45330  -0.45210  -0.44882  -0.44846  -0.44769
 Alpha  occ. eigenvalues --   -0.44395  -0.43581  -0.42275  -0.42230  -0.41505
 Alpha  occ. eigenvalues --   -0.41346  -0.41117  -0.40499  -0.40120  -0.39569
 Alpha  occ. eigenvalues --   -0.39205  -0.38572  -0.38434  -0.38235  -0.37267
 Alpha  occ. eigenvalues --   -0.36749  -0.34064  -0.32023  -0.31229  -0.31227
 Alpha  occ. eigenvalues --   -0.30472  -0.30311  -0.29139  -0.27937  -0.27588
 Alpha  occ. eigenvalues --   -0.22626  -0.16770
 Alpha virt. eigenvalues --   -0.02966  -0.01414  -0.00826   0.00077   0.00800
 Alpha virt. eigenvalues --    0.01887   0.01908   0.05566   0.05719   0.06332
 Alpha virt. eigenvalues --    0.06755   0.07146   0.08613   0.08770   0.09121
 Alpha virt. eigenvalues --    0.09226   0.09651   0.10072   0.10254   0.10536
 Alpha virt. eigenvalues --    0.10854   0.11208   0.11738   0.12234   0.12676
 Alpha virt. eigenvalues --    0.12836   0.13650   0.13667   0.13952   0.14361
 Alpha virt. eigenvalues --    0.14430   0.14498   0.14516   0.14903   0.15013
 Alpha virt. eigenvalues --    0.15636   0.15931   0.16279   0.16402   0.16523
 Alpha virt. eigenvalues --    0.16785   0.16841   0.18066   0.18228   0.18614
 Alpha virt. eigenvalues --    0.18828   0.18992   0.19066   0.19141   0.19678
 Alpha virt. eigenvalues --    0.20376   0.20979   0.21221   0.21615   0.22015
 Alpha virt. eigenvalues --    0.22289   0.22331   0.22780   0.22971   0.23157
 Alpha virt. eigenvalues --    0.23196   0.23340   0.23500   0.23691   0.24199
 Alpha virt. eigenvalues --    0.24318   0.24362   0.25009   0.25141   0.25827
 Alpha virt. eigenvalues --    0.25962   0.26275   0.26470   0.26656   0.26956
 Alpha virt. eigenvalues --    0.27203   0.27639   0.27705   0.27994   0.28079
 Alpha virt. eigenvalues --    0.28436   0.28532   0.28629   0.28914   0.29079
 Alpha virt. eigenvalues --    0.29635   0.29706   0.30195   0.30432   0.30591
 Alpha virt. eigenvalues --    0.30952   0.31205   0.31453   0.31793   0.32104
 Alpha virt. eigenvalues --    0.32225   0.32571   0.32881   0.32997   0.33204
 Alpha virt. eigenvalues --    0.33432   0.33519   0.33910   0.34023   0.34226
 Alpha virt. eigenvalues --    0.34885   0.34982   0.35521   0.35737   0.35802
 Alpha virt. eigenvalues --    0.36097   0.36157   0.36741   0.36888   0.36936
 Alpha virt. eigenvalues --    0.37231   0.37442   0.37501   0.37739   0.38038
 Alpha virt. eigenvalues --    0.38177   0.38539   0.38745   0.38802   0.38915
 Alpha virt. eigenvalues --    0.39475   0.39665   0.40088   0.40347   0.40716
 Alpha virt. eigenvalues --    0.40827   0.40953   0.41178   0.41475   0.42019
 Alpha virt. eigenvalues --    0.42139   0.42231   0.42384   0.42661   0.42750
 Alpha virt. eigenvalues --    0.42892   0.42962   0.43365   0.43567   0.43592
 Alpha virt. eigenvalues --    0.43800   0.44254   0.44526   0.45021   0.45147
 Alpha virt. eigenvalues --    0.45259   0.45465   0.45558   0.45738   0.45843
 Alpha virt. eigenvalues --    0.46340   0.46513   0.46716   0.46867   0.47910
 Alpha virt. eigenvalues --    0.48159   0.48260   0.48296   0.48677   0.48873
 Alpha virt. eigenvalues --    0.49390   0.49826   0.50012   0.50183   0.50302
 Alpha virt. eigenvalues --    0.50571   0.50722   0.51221   0.51662   0.51953
 Alpha virt. eigenvalues --    0.52175   0.52287   0.52520   0.52729   0.52828
 Alpha virt. eigenvalues --    0.53084   0.53135   0.53454   0.53546   0.53656
 Alpha virt. eigenvalues --    0.53716   0.54303   0.54448   0.54651   0.55035
 Alpha virt. eigenvalues --    0.55246   0.55388   0.55775   0.56086   0.56285
 Alpha virt. eigenvalues --    0.56668   0.57480   0.57552   0.58083   0.58111
 Alpha virt. eigenvalues --    0.58429   0.58843   0.59644   0.59843   0.59875
 Alpha virt. eigenvalues --    0.60185   0.60292   0.61118   0.61933   0.61961
 Alpha virt. eigenvalues --    0.63126   0.63337   0.63443   0.63864   0.64109
 Alpha virt. eigenvalues --    0.64381   0.64970   0.65230   0.65609   0.65641
 Alpha virt. eigenvalues --    0.65861   0.66798   0.66950   0.67084   0.67593
 Alpha virt. eigenvalues --    0.67735   0.68248   0.68728   0.68865   0.68929
 Alpha virt. eigenvalues --    0.69108   0.69352   0.69921   0.70021   0.70127
 Alpha virt. eigenvalues --    0.70494   0.70601   0.70842   0.70874   0.71162
 Alpha virt. eigenvalues --    0.71430   0.71597   0.71806   0.72078   0.72172
 Alpha virt. eigenvalues --    0.72691   0.72755   0.72946   0.73048   0.73107
 Alpha virt. eigenvalues --    0.74033   0.74488   0.74555   0.74675   0.75146
 Alpha virt. eigenvalues --    0.75212   0.75669   0.75941   0.76212   0.76389
 Alpha virt. eigenvalues --    0.76494   0.76659   0.77207   0.77529   0.77756
 Alpha virt. eigenvalues --    0.77863   0.78695   0.78769   0.79088   0.79324
 Alpha virt. eigenvalues --    0.79422   0.79491   0.79954   0.80444   0.80698
 Alpha virt. eigenvalues --    0.81294   0.81911   0.82162   0.82275   0.82748
 Alpha virt. eigenvalues --    0.83135   0.83513   0.83989   0.84194   0.84350
 Alpha virt. eigenvalues --    0.84763   0.84876   0.85517   0.85773   0.86227
 Alpha virt. eigenvalues --    0.86844   0.87119   0.87312   0.87556   0.88158
 Alpha virt. eigenvalues --    0.88530   0.88584   0.88638   0.89298   0.89673
 Alpha virt. eigenvalues --    0.89847   0.90175   0.90629   0.90740   0.90841
 Alpha virt. eigenvalues --    0.91701   0.92044   0.92297   0.92632   0.93126
 Alpha virt. eigenvalues --    0.93832   0.94229   0.95377   0.95562   0.95791
 Alpha virt. eigenvalues --    0.96300   0.96448   0.96853   0.97014   0.97210
 Alpha virt. eigenvalues --    0.97542   0.98092   0.98242   0.98461   0.98591
 Alpha virt. eigenvalues --    0.99259   0.99539   0.99877   1.00067   1.00277
 Alpha virt. eigenvalues --    1.00709   1.00993   1.01234   1.01267   1.01674
 Alpha virt. eigenvalues --    1.01816   1.02051   1.02183   1.02290   1.02547
 Alpha virt. eigenvalues --    1.03098   1.03380   1.03655   1.03856   1.04389
 Alpha virt. eigenvalues --    1.04409   1.05300   1.05669   1.06002   1.06328
 Alpha virt. eigenvalues --    1.06492   1.06676   1.07001   1.07565   1.07713
 Alpha virt. eigenvalues --    1.08295   1.08633   1.09252   1.09722   1.09987
 Alpha virt. eigenvalues --    1.10395   1.10728   1.11213   1.11367   1.11990
 Alpha virt. eigenvalues --    1.12343   1.12413   1.12862   1.12934   1.13415
 Alpha virt. eigenvalues --    1.13607   1.13772   1.14615   1.14671   1.15013
 Alpha virt. eigenvalues --    1.15247   1.15550   1.16266   1.16404   1.16648
 Alpha virt. eigenvalues --    1.17345   1.17665   1.18379   1.18591   1.18888
 Alpha virt. eigenvalues --    1.19262   1.19881   1.20664   1.20687   1.20957
 Alpha virt. eigenvalues --    1.21025   1.21575   1.22164   1.22457   1.22594
 Alpha virt. eigenvalues --    1.22690   1.23693   1.23838   1.24140   1.24367
 Alpha virt. eigenvalues --    1.24716   1.25084   1.25130   1.25533   1.26108
 Alpha virt. eigenvalues --    1.26182   1.26451   1.26918   1.27400   1.27803
 Alpha virt. eigenvalues --    1.27895   1.28342   1.28838   1.29215   1.29462
 Alpha virt. eigenvalues --    1.29826   1.30171   1.30560   1.30755   1.31070
 Alpha virt. eigenvalues --    1.31676   1.32118   1.32835   1.32906   1.33105
 Alpha virt. eigenvalues --    1.33278   1.33697   1.34206   1.34273   1.34325
 Alpha virt. eigenvalues --    1.34746   1.35003   1.35197   1.35506   1.36056
 Alpha virt. eigenvalues --    1.36304   1.36616   1.37052   1.37321   1.37426
 Alpha virt. eigenvalues --    1.37633   1.38186   1.38282   1.38892   1.39140
 Alpha virt. eigenvalues --    1.39932   1.40103   1.40417   1.40487   1.40808
 Alpha virt. eigenvalues --    1.41529   1.41586   1.42697   1.43778   1.43866
 Alpha virt. eigenvalues --    1.44482   1.44685   1.44769   1.44931   1.45586
 Alpha virt. eigenvalues --    1.45986   1.46084   1.46542   1.47213   1.47399
 Alpha virt. eigenvalues --    1.47652   1.47982   1.48066   1.48723   1.48994
 Alpha virt. eigenvalues --    1.49242   1.49628   1.50534   1.50667   1.50912
 Alpha virt. eigenvalues --    1.51375   1.51624   1.51825   1.52174   1.52282
 Alpha virt. eigenvalues --    1.52456   1.52969   1.53102   1.53221   1.53426
 Alpha virt. eigenvalues --    1.53558   1.54314   1.54546   1.54728   1.55184
 Alpha virt. eigenvalues --    1.55591   1.55873   1.56503   1.56778   1.56810
 Alpha virt. eigenvalues --    1.56867   1.57670   1.57756   1.58085   1.58403
 Alpha virt. eigenvalues --    1.58457   1.58798   1.59338   1.59586   1.59853
 Alpha virt. eigenvalues --    1.60186   1.60938   1.61572   1.62147   1.62212
 Alpha virt. eigenvalues --    1.62321   1.62547   1.62915   1.63779   1.64057
 Alpha virt. eigenvalues --    1.64585   1.64890   1.65098   1.66002   1.66588
 Alpha virt. eigenvalues --    1.66816   1.67021   1.68054   1.68257   1.68783
 Alpha virt. eigenvalues --    1.69112   1.69272   1.69668   1.69738   1.70154
 Alpha virt. eigenvalues --    1.70214   1.70473   1.70610   1.71038   1.71236
 Alpha virt. eigenvalues --    1.72187   1.72491   1.73591   1.73877   1.74235
 Alpha virt. eigenvalues --    1.74899   1.75049   1.75611   1.75734   1.76138
 Alpha virt. eigenvalues --    1.76449   1.76575   1.76762   1.77416   1.78311
 Alpha virt. eigenvalues --    1.78500   1.78922   1.79807   1.79906   1.80392
 Alpha virt. eigenvalues --    1.81250   1.81754   1.82853   1.83129   1.83329
 Alpha virt. eigenvalues --    1.84091   1.84202   1.85280   1.85447   1.85942
 Alpha virt. eigenvalues --    1.86515   1.87107   1.87581   1.87872   1.88202
 Alpha virt. eigenvalues --    1.88245   1.88843   1.89376   1.89986   1.90470
 Alpha virt. eigenvalues --    1.90542   1.91761   1.92105   1.92867   1.93732
 Alpha virt. eigenvalues --    1.93890   1.94317   1.95310   1.95474   1.95899
 Alpha virt. eigenvalues --    1.97372   1.97964   1.98013   1.98490   1.98859
 Alpha virt. eigenvalues --    1.99091   1.99743   2.00257   2.00543   2.00696
 Alpha virt. eigenvalues --    2.00793   2.01536   2.01689   2.01749   2.02109
 Alpha virt. eigenvalues --    2.03008   2.03172   2.04219   2.04480   2.05198
 Alpha virt. eigenvalues --    2.05612   2.06394   2.06898   2.07348   2.07725
 Alpha virt. eigenvalues --    2.08085   2.09261   2.09348   2.10071   2.10389
 Alpha virt. eigenvalues --    2.10681   2.10884   2.11020   2.11922   2.12084
 Alpha virt. eigenvalues --    2.12753   2.12826   2.13300   2.13461   2.15079
 Alpha virt. eigenvalues --    2.16729   2.16940   2.17654   2.17931   2.18762
 Alpha virt. eigenvalues --    2.19765   2.20422   2.21062   2.21472   2.22091
 Alpha virt. eigenvalues --    2.23161   2.24062   2.24691   2.26170   2.26292
 Alpha virt. eigenvalues --    2.27292   2.27988   2.28211   2.28524   2.29140
 Alpha virt. eigenvalues --    2.29228   2.29241   2.29989   2.30527   2.31799
 Alpha virt. eigenvalues --    2.32427   2.32534   2.32891   2.33205   2.33311
 Alpha virt. eigenvalues --    2.34474   2.34934   2.35600   2.36161   2.36374
 Alpha virt. eigenvalues --    2.37689   2.37895   2.37927   2.38244   2.38908
 Alpha virt. eigenvalues --    2.39127   2.39622   2.39898   2.40411   2.40796
 Alpha virt. eigenvalues --    2.40933   2.40974   2.41458   2.42011   2.43356
 Alpha virt. eigenvalues --    2.45084   2.45611   2.46283   2.46372   2.47166
 Alpha virt. eigenvalues --    2.47555   2.48075   2.48320   2.48676   2.49001
 Alpha virt. eigenvalues --    2.49940   2.50098   2.51078   2.51164   2.53647
 Alpha virt. eigenvalues --    2.55255   2.55930   2.56428   2.56878   2.58056
 Alpha virt. eigenvalues --    2.59177   2.59387   2.60000   2.60212   2.61699
 Alpha virt. eigenvalues --    2.62008   2.62760   2.63353   2.63590   2.64029
 Alpha virt. eigenvalues --    2.65139   2.65377   2.65952   2.66399   2.66951
 Alpha virt. eigenvalues --    2.67182   2.67394   2.67842   2.68290   2.68628
 Alpha virt. eigenvalues --    2.69117   2.69615   2.70019   2.70344   2.70604
 Alpha virt. eigenvalues --    2.70917   2.71067   2.73134   2.73646   2.74309
 Alpha virt. eigenvalues --    2.74561   2.74773   2.74894   2.75204   2.75612
 Alpha virt. eigenvalues --    2.76383   2.76478   2.76802   2.76931   2.76979
 Alpha virt. eigenvalues --    2.77543   2.77696   2.77738   2.78042   2.78207
 Alpha virt. eigenvalues --    2.78528   2.78681   2.78865   2.79286   2.79436
 Alpha virt. eigenvalues --    2.79926   2.79959   2.81032   2.81169   2.81548
 Alpha virt. eigenvalues --    2.81719   2.82006   2.82249   2.82362   2.83121
 Alpha virt. eigenvalues --    2.83334   2.83432   2.84365   2.84970   2.85133
 Alpha virt. eigenvalues --    2.85615   2.86076   2.86114   2.86983   2.87231
 Alpha virt. eigenvalues --    2.87438   2.87696   2.87965   2.88376   2.88593
 Alpha virt. eigenvalues --    2.89571   2.89916   2.90180   2.90507   2.91207
 Alpha virt. eigenvalues --    2.91458   2.91961   2.92034   2.92347   2.92685
 Alpha virt. eigenvalues --    2.93011   2.93151   2.93287   2.93531   2.93867
 Alpha virt. eigenvalues --    2.94269   2.94816   2.95305   2.95648   2.95866
 Alpha virt. eigenvalues --    2.96215   2.96650   2.96909   2.97545   2.98309
 Alpha virt. eigenvalues --    2.98454   2.99121   2.99402   2.99603   2.99695
 Alpha virt. eigenvalues --    3.00148   3.00727   3.00995   3.01176   3.01222
 Alpha virt. eigenvalues --    3.01533   3.01726   3.02026   3.02231   3.02262
 Alpha virt. eigenvalues --    3.03078   3.03262   3.03412   3.03740   3.03829
 Alpha virt. eigenvalues --    3.04525   3.04709   3.04962   3.05228   3.05534
 Alpha virt. eigenvalues --    3.05618   3.05652   3.05868   3.06253   3.06790
 Alpha virt. eigenvalues --    3.07025   3.07204   3.07389   3.07765   3.08062
 Alpha virt. eigenvalues --    3.08623   3.08676   3.09370   3.09609   3.09739
 Alpha virt. eigenvalues --    3.10056   3.10387   3.10507   3.10648   3.10818
 Alpha virt. eigenvalues --    3.11207   3.11284   3.12053   3.12406   3.13230
 Alpha virt. eigenvalues --    3.13534   3.13777   3.13892   3.14118   3.14840
 Alpha virt. eigenvalues --    3.14953   3.15205   3.15375   3.15516   3.15572
 Alpha virt. eigenvalues --    3.16158   3.16698   3.16851   3.17064   3.17242
 Alpha virt. eigenvalues --    3.17448   3.17731   3.18022   3.18719   3.18873
 Alpha virt. eigenvalues --    3.19057   3.19603   3.20270   3.21151   3.21217
 Alpha virt. eigenvalues --    3.21451   3.21888   3.21937   3.22453   3.22575
 Alpha virt. eigenvalues --    3.23218   3.23543   3.23666   3.23677   3.24328
 Alpha virt. eigenvalues --    3.24507   3.24867   3.24877   3.25627   3.25757
 Alpha virt. eigenvalues --    3.26027   3.26757   3.27143   3.27388   3.27580
 Alpha virt. eigenvalues --    3.27735   3.28249   3.28441   3.28769   3.28824
 Alpha virt. eigenvalues --    3.28998   3.29346   3.30455   3.30568   3.31171
 Alpha virt. eigenvalues --    3.31259   3.32023   3.32245   3.32379   3.32493
 Alpha virt. eigenvalues --    3.33334   3.33526   3.33734   3.33787   3.34112
 Alpha virt. eigenvalues --    3.34466   3.34643   3.34743   3.35072   3.35219
 Alpha virt. eigenvalues --    3.35734   3.36057   3.36609   3.36658   3.37005
 Alpha virt. eigenvalues --    3.37043   3.37606   3.37797   3.37909   3.38218
[...]
              Bcc     0.0017     0.230     0.082     0.077 -0.6464  0.7630  0.0062
 
              Baa    -0.0837   -11.230    -4.007    -3.746  0.9853  0.1696  0.0187
     2 C(13)  Bbb    -0.0822   -11.025    -3.934    -3.677 -0.1701  0.9848  0.0356
              Bcc     0.1658    22.254     7.941     7.423 -0.0124 -0.0382  0.9992
 
              Baa    -0.0655    -8.787    -3.136    -2.931  0.0004 -0.0458  0.9990
     3 C(13)  Bbb     0.0317     4.254     1.518     1.419 -0.0646  0.9969  0.0457
              Bcc     0.0338     4.533     1.618     1.512  0.9979  0.0645  0.0026
 
              Baa    -0.0980   -13.148    -4.692    -4.386 -0.4788  0.8779  0.0083
     4 C(13)  Bbb    -0.0955   -12.810    -4.571    -4.273  0.8775  0.4783  0.0354
              Bcc     0.1934    25.958     9.262     8.659 -0.0271 -0.0242  0.9993
 
              Baa    -0.0692    -9.283    -3.312    -3.096 -0.0627  0.0829  0.9946
     5 C(13)  Bbb     0.0289     3.873     1.382     1.292 -0.6030  0.7909 -0.1040
              Bcc     0.0403     5.410     1.930     1.804  0.7953  0.6063 -0.0004
 
              Baa    -0.0837   -11.228    -4.007    -3.745  0.1793  0.9796 -0.0910
     6 C(13)  Bbb    -0.0791   -10.614    -3.788    -3.541  0.9816 -0.1719  0.0836
              Bcc     0.1628    21.843     7.794     7.286 -0.0663  0.1043  0.9923
 
              Baa    -0.0252    -3.385    -1.208    -1.129 -0.0695  0.0988  0.9927
     7 C(13)  Bbb     0.0100     1.342     0.479     0.448 -0.1740  0.9786 -0.1096
              Bcc     0.0152     2.042     0.729     0.681  0.9823  0.1803  0.0508
 
              Baa    -0.0195    -2.620    -0.935    -0.874 -0.3934  0.9124 -0.1127
     8 C(13)  Bbb    -0.0185    -2.478    -0.884    -0.826  0.9154  0.4001  0.0438
              Bcc     0.0380     5.098     1.819     1.701 -0.0851  0.0860  0.9927
 
              Baa    -0.0147    -1.967    -0.702    -0.656 -0.0806  0.0931  0.9924
     9 C(13)  Bbb     0.0063     0.845     0.302     0.282 -0.5872  0.8001 -0.1227
              Bcc     0.0084     1.121     0.400     0.374  0.8054  0.5926  0.0098
 
              Baa    -0.0228    -3.060    -1.092    -1.021 -0.3586  0.9259 -0.1191
    10 C(13)  Bbb    -0.0204    -2.742    -0.978    -0.915  0.9302  0.3650  0.0372
              Bcc     0.0432     5.802     2.070     1.935 -0.0779  0.0974  0.9922
 
              Baa    -0.0149    -2.005    -0.716    -0.669 -0.0805  0.0938  0.9923
    11 C(13)  Bbb     0.0065     0.872     0.311     0.291 -0.1398  0.9847 -0.1044
              Bcc     0.0084     1.133     0.404     0.378  0.9869  0.1471  0.0661
 
              Baa    -0.0201    -2.697    -0.962    -0.899 -0.4453  0.8878 -0.1166
    12 C(13)  Bbb    -0.0181    -2.431    -0.868    -0.811  0.8918  0.4514  0.0313
              Bcc     0.0382     5.128     1.830     1.710 -0.0804  0.0900  0.9927
 
              Baa    -0.0552    -2.128    -0.759    -0.710  0.0455  0.9983  0.0370
    13 N(14)  Bbb    -0.0447    -1.723    -0.615    -0.575  0.9990 -0.0455 -0.0014
              Bcc     0.0998     3.851     1.374     1.285 -0.0003 -0.0370  0.9993
 
              Baa    -0.1034   -13.873    -4.950    -4.628 -0.0243 -0.0204  0.9995
    14 C(13)  Bbb     0.0447     5.998     2.140     2.001  0.8188 -0.5741  0.0082
              Bcc     0.0587     7.875     2.810     2.627  0.5736  0.8185  0.0307
 
              Baa    -0.2321   -31.150   -11.115   -10.391  0.0015  1.0000  0.0009
    15 C(13)  Bbb    -0.2285   -30.668   -10.943   -10.230  0.9992 -0.0015  0.0400
              Bcc     0.4607    61.818    22.058    20.620 -0.0400 -0.0009  0.9992
 
              Baa    -0.1035   -13.892    -4.957    -4.634 -0.0296  0.0144  0.9995
    16 C(13)  Bbb     0.0448     6.006     2.143     2.003  0.8210  0.5707  0.0161
              Bcc     0.0588     7.886     2.814     2.631 -0.5701  0.8211 -0.0287
 
              Baa    -0.0838   -11.250    -4.014    -3.753  0.9844 -0.1741  0.0247
    17 C(13)  Bbb    -0.0823   -11.047    -3.942    -3.685  0.1747  0.9844 -0.0217
              Bcc     0.1662    22.297     7.956     7.438 -0.0205  0.0257  0.9995
 
              Baa    -0.0017    -0.226    -0.081    -0.075  0.7603 -0.6493  0.0214
    18 C(13)  Bbb    -0.0000    -0.005    -0.002    -0.002 -0.0345 -0.0076  0.9994
              Bcc     0.0017     0.231     0.082     0.077  0.6487  0.7605  0.0282
 
              Baa    -0.0657    -8.813    -3.145    -2.940 -0.0053  0.0369  0.9993
    19 C(13)  Bbb     0.0318     4.267     1.523     1.423  0.0666  0.9971 -0.0364
              Bcc     0.0339     4.546     1.622     1.516  0.9978 -0.0664  0.0077
 
              Baa    -0.0982   -13.174    -4.701    -4.394  0.4826  0.8758 -0.0001
    20 C(13)  Bbb    -0.0956   -12.835    -4.580    -4.281  0.8753 -0.4823  0.0362
              Bcc     0.1938    26.009     9.281     8.676 -0.0317  0.0176  0.9993
 
              Baa    -0.0693    -9.300    -3.319    -3.102 -0.0674 -0.0882  0.9938
    21 C(13)  Bbb     0.0289     3.880     1.384     1.294  0.6052  0.7883  0.1110
              Bcc     0.0404     5.420     1.934     1.808  0.7933 -0.6089 -0.0002
 
              Baa    -0.0839   -11.252    -4.015    -3.753 -0.1770  0.9796  0.0952
    22 C(13)  Bbb    -0.0793   -10.637    -3.796    -3.548  0.9817  0.1688  0.0887
              Bcc     0.1631    21.889     7.811     7.301 -0.0709 -0.1091  0.9915
 
              Baa    -0.0253    -3.392    -1.210    -1.131 -0.0738 -0.1031  0.9919
    23 C(13)  Bbb     0.0100     1.345     0.480     0.449  0.1765  0.9776  0.1147
              Bcc     0.0152     2.046     0.730     0.683  0.9815 -0.1835  0.0540
 
              Baa    -0.0201    -2.703    -0.964    -0.901  0.4474  0.8859  0.1223
    24 C(13)  Bbb    -0.0182    -2.437    -0.870    -0.813  0.8903 -0.4541  0.0326
              Bcc     0.0383     5.139     1.834     1.714 -0.0844 -0.0943  0.9920
 
              Baa    -0.0150    -2.010    -0.717    -0.670 -0.0843 -0.0981  0.9916
    25 C(13)  Bbb     0.0065     0.874     0.312     0.292  0.1422  0.9838  0.1094
              Bcc     0.0085     1.136     0.405     0.379  0.9862 -0.1502  0.0690
 
              Baa    -0.0229    -3.067    -1.094    -1.023  0.3608  0.9243  0.1246
    26 C(13)  Bbb    -0.0205    -2.748    -0.981    -0.917  0.9290 -0.3679  0.0389
              Bcc     0.0433     5.815     2.075     1.940 -0.0818 -0.1018  0.9914
 
              Baa    -0.0147    -1.971    -0.703    -0.657 -0.0844 -0.0974  0.9917
    27 C(13)  Bbb     0.0063     0.847     0.302     0.283  0.5892  0.7977  0.1285
              Bcc     0.0084     1.124     0.401     0.375  0.8035 -0.5952  0.0099
 
              Baa    -0.0196    -2.626    -0.937    -0.876  0.3956  0.9108  0.1183
    28 C(13)  Bbb    -0.0185    -2.483    -0.886    -0.828  0.9141 -0.4029  0.0450
              Bcc     0.0381     5.110     1.823     1.704 -0.0886 -0.0903  0.9920
 
              Baa    -0.0552    -2.129    -0.760    -0.710 -0.0407  0.9986 -0.0335
    29 N(14)  Bbb    -0.0447    -1.723    -0.615    -0.575  0.9991  0.0411  0.0094
              Bcc     0.0999     3.852     1.375     1.285 -0.0107  0.0331  0.9994
 
              Baa    -0.0023    -0.395    -0.141    -0.132 -0.2497 -0.0162  0.9682
    30 B(11)  Bbb     0.0009     0.162     0.058     0.054  0.9634 -0.1046  0.2467
              Bcc     0.0014     0.234     0.083     0.078  0.0972  0.9944  0.0418
 
              Baa    -0.0087    -4.368    -1.559    -1.457 -0.2360 -0.0010  0.9718
    31 F(19)  Bbb    -0.0062    -3.089    -1.102    -1.030  0.0032  1.0000  0.0017
              Bcc     0.0148     7.458     2.661     2.488  0.9718 -0.0035  0.2360
 
              Baa    -0.0163    -8.190    -2.922    -2.732 -0.0032  0.9999 -0.0127
    32 F(19)  Bbb    -0.0138    -6.924    -2.471    -2.309  0.4462  0.0128  0.8948
              Bcc     0.0301    15.113     5.393     5.041  0.8949 -0.0028 -0.4462
 
              Baa    -0.0055    -0.744    -0.265    -0.248 -0.0008  0.9975  0.0704
    33 C(13)  Bbb     0.0021     0.282     0.101     0.094  1.0000  0.0009 -0.0018
              Bcc     0.0034     0.462     0.165     0.154  0.0018 -0.0704  0.9975
 
              Baa    -0.0085    -1.135    -0.405    -0.379  0.5522  0.0472  0.8324
    34 C(13)  Bbb    -0.0068    -0.911    -0.325    -0.304 -0.0986  0.9951  0.0090
              Bcc     0.0152     2.046     0.730     0.682  0.8279  0.0871 -0.5541
 
              Baa    -0.0032    -0.424    -0.151    -0.141  0.0130  0.9989  0.0455
    35 C(13)  Bbb    -0.0016    -0.213    -0.076    -0.071  0.1533 -0.0470  0.9871
              Bcc     0.0047     0.637     0.227     0.213  0.9881 -0.0059 -0.1538
 
              Baa    -0.0011    -0.152    -0.054    -0.051 -0.0431 -0.0865  0.9953
    36 C(13)  Bbb    -0.0002    -0.033    -0.012    -0.011 -0.0030  0.9962  0.0865
              Bcc     0.0014     0.185     0.066     0.062  0.9991 -0.0007  0.0432
 
              Baa    -0.0032    -0.432    -0.154    -0.144 -0.0085  0.9990  0.0439
    37 C(13)  Bbb    -0.0016    -0.220    -0.079    -0.073 -0.2298 -0.0447  0.9722
              Bcc     0.0049     0.652     0.233     0.218  0.9732 -0.0018  0.2300
 
              Baa    -0.0086    -1.156    -0.413    -0.386 -0.6250  0.0474  0.7792
    38 C(13)  Bbb    -0.0069    -0.932    -0.333    -0.311  0.1004  0.9948  0.0200
              Bcc     0.0156     2.089     0.745     0.697  0.7741 -0.0907  0.6265
 
              Baa    -0.0006    -0.021    -0.008    -0.007  0.0066  0.9774  0.2114
    39 N(14)  Bbb    -0.0003    -0.011    -0.004    -0.004 -0.0879 -0.2100  0.9737
              Bcc     0.0008     0.032     0.011     0.011  0.9961 -0.0250  0.0845
 
              Baa    -0.0004    -0.014    -0.005    -0.005  0.1058 -0.0030  0.9944
    40 N(14)  Bbb    -0.0002    -0.009    -0.003    -0.003  0.0642  0.9979 -0.0039
              Bcc     0.0006     0.023     0.008     0.008  0.9923 -0.0642 -0.1058
 
              Baa    -0.0004    -0.015    -0.005    -0.005  0.1749 -0.0899  0.9805
    41 N(14)  Bbb     0.0001     0.006     0.002     0.002 -0.0744  0.9918  0.1042
              Bcc     0.0002     0.010     0.003     0.003  0.9818  0.0912 -0.1668
 
              Baa    -0.0024    -1.280    -0.457    -0.427 -0.3943 -0.0286  0.9185
    42 H(1)   Bbb    -0.0008    -0.425    -0.152    -0.142  0.4342  0.8751  0.2137
              Bcc     0.0032     1.705     0.608     0.569  0.8099 -0.4831  0.3327
 
              Baa    -0.0016    -0.866    -0.309    -0.289  0.8177  0.5613  0.1277
    43 H(1)   Bbb    -0.0016    -0.827    -0.295    -0.276 -0.0964 -0.0852  0.9917
              Bcc     0.0032     1.693     0.604     0.565 -0.5675  0.8232  0.0155
 
              Baa    -0.0024    -1.293    -0.461    -0.431  0.3742 -0.0001  0.9273
    44 H(1)   Bbb    -0.0008    -0.421    -0.150    -0.141  0.4409  0.8797 -0.1778
              Bcc     0.0032     1.714     0.612     0.572  0.8158 -0.4754 -0.3293
 
              Baa    -0.0027    -1.462    -0.522    -0.488  0.0033  0.0636  0.9980
    45 H(1)   Bbb    -0.0019    -1.005    -0.359    -0.335  0.1251  0.9901 -0.0635
              Bcc     0.0046     2.467     0.880     0.823  0.9921 -0.1250  0.0047
 
              Baa    -0.0032    -1.716    -0.612    -0.572 -0.4889  0.7899  0.3703
    46 H(1)   Bbb    -0.0029    -1.565    -0.559    -0.522  0.1796 -0.3243  0.9288
              Bcc     0.0062     3.282     1.171     1.095  0.8537  0.5205  0.0167
 
              Baa    -0.0087    -4.660    -1.663    -1.554  0.7483  0.6634 -0.0062
    47 H(1)   Bbb    -0.0021    -1.096    -0.391    -0.366 -0.0517  0.0676  0.9964
              Bcc     0.0108     5.756     2.054     1.920 -0.6614  0.7452 -0.0849
 
              Baa    -0.0016    -0.856    -0.306    -0.286  0.9902 -0.1394 -0.0058
    48 H(1)   Bbb    -0.0012    -0.619    -0.221    -0.206  0.0122  0.0450  0.9989
              Bcc     0.0028     1.475     0.526     0.492  0.1390  0.9892 -0.0462
 
              Baa    -0.0008    -0.434    -0.155    -0.145 -0.0814  0.0880  0.9928
    49 H(1)   Bbb    -0.0004    -0.188    -0.067    -0.063 -0.6188  0.7764 -0.1195
              Bcc     0.0012     0.623     0.222     0.208  0.7813  0.6241  0.0088
 
              Baa    -0.0033    -1.752    -0.625    -0.584 -0.3260  0.9379 -0.1187
    50 H(1)   Bbb    -0.0003    -0.147    -0.053    -0.049 -0.0791  0.0981  0.9920
              Bcc     0.0036     1.899     0.678     0.633  0.9421  0.3328  0.0422
 
              Baa    -0.0008    -0.415    -0.148    -0.138 -0.0791  0.0846  0.9933
    51 H(1)   Bbb    -0.0003    -0.145    -0.052    -0.048 -0.1074  0.9899 -0.0928
              Bcc     0.0010     0.560     0.200     0.187  0.9911  0.1140  0.0692
 
              Baa    -0.0013    -0.677    -0.242    -0.226 -0.1181  0.0656  0.9908
    52 H(1)   Bbb    -0.0010    -0.524    -0.187    -0.175  0.7882  0.6131  0.0533
              Bcc     0.0023     1.202     0.429     0.401 -0.6040  0.7873 -0.1241
 
              Baa    -0.0024    -1.300    -0.464    -0.433 -0.3890  0.0170  0.9211
    53 H(1)   Bbb    -0.0008    -0.405    -0.144    -0.135 -0.4339  0.8786 -0.1995
              Bcc     0.0032     1.704     0.608     0.568  0.8127  0.4773  0.3344
 
              Baa    -0.0024    -1.274    -0.455    -0.425  0.3782 -0.0126  0.9256
    54 H(1)   Bbb    -0.0008    -0.444    -0.158    -0.148 -0.4349  0.8803  0.1897
              Bcc     0.0032     1.718     0.613     0.573  0.8172  0.4743 -0.3274
 
              Baa    -0.0016    -0.870    -0.310    -0.290  0.7861 -0.5427 -0.2958
    55 H(1)   Bbb    -0.0015    -0.826    -0.295    -0.275  0.2382 -0.1755  0.9552
              Bcc     0.0032     1.696     0.605     0.566  0.5703  0.8214  0.0087
 
              Baa    -0.0027    -1.463    -0.522    -0.488 -0.0041 -0.0690  0.9976
    56 H(1)   Bbb    -0.0019    -1.011    -0.361    -0.337 -0.1218  0.9902  0.0680
              Bcc     0.0046     2.473     0.883     0.825  0.9926  0.1212  0.0125
 
              Baa    -0.0032    -1.717    -0.613    -0.573  0.4951  0.7941 -0.3525
    57 H(1)   Bbb    -0.0029    -1.570    -0.560    -0.524  0.1703  0.3091  0.9357
              Bcc     0.0062     3.287     1.173     1.096  0.8520 -0.5233  0.0178
 
              Baa    -0.0088    -4.671    -1.667    -1.558  0.7463 -0.6656 -0.0072
    58 H(1)   Bbb    -0.0021    -1.097    -0.391    -0.366 -0.0564 -0.0739  0.9957
              Bcc     0.0108     5.768     2.058     1.924  0.6632  0.7427  0.0927
 
              Baa    -0.0013    -0.678    -0.242    -0.226 -0.1217 -0.0701  0.9901
    59 H(1)   Bbb    -0.0010    -0.526    -0.188    -0.176  0.7861 -0.6159  0.0530
              Bcc     0.0023     1.205     0.430     0.402  0.6060  0.7847  0.1301
 
              Baa    -0.0008    -0.415    -0.148    -0.139 -0.0829 -0.0887  0.9926
    60 H(1)   Bbb    -0.0003    -0.145    -0.052    -0.048  0.1098  0.9892  0.0976
              Bcc     0.0011     0.561     0.200     0.187  0.9905 -0.1171  0.0723
 
              Baa    -0.0033    -1.756    -0.626    -0.586  0.3284  0.9363  0.1243
    61 H(1)   Bbb    -0.0003    -0.148    -0.053    -0.049 -0.0831 -0.1024  0.9913
              Bcc     0.0036     1.903     0.679     0.635  0.9409 -0.3358  0.0442
 
              Baa    -0.0008    -0.435    -0.155    -0.145 -0.0852 -0.0918  0.9921
    62 H(1)   Bbb    -0.0004    -0.189    -0.067    -0.063  0.6208  0.7739  0.1249
              Bcc     0.0012     0.624     0.223     0.208  0.7793 -0.6266  0.0089
 
              Baa    -0.0016    -0.859    -0.306    -0.286  0.9907  0.1363 -0.0014
    63 H(1)   Bbb    -0.0012    -0.619    -0.221    -0.207  0.0083 -0.0501  0.9987
              Bcc     0.0028     1.478     0.527     0.493 -0.1361  0.9894  0.0507
 
              Baa    -0.0031    -1.658    -0.592    -0.553  0.0545  0.9947  0.0870
    64 H(1)   Bbb    -0.0020    -1.083    -0.386    -0.361  0.7834 -0.0966  0.6139
              Bcc     0.0051     2.740     0.978     0.914 -0.6191 -0.0346  0.7846
 
              Baa    -0.0007    -0.385    -0.137    -0.128  0.0237  0.9965  0.0797
    65 H(1)   Bbb    -0.0007    -0.368    -0.131    -0.123  0.4003 -0.0825  0.9127
              Bcc     0.0014     0.753     0.269     0.251  0.9161  0.0102 -0.4009
 
              Baa    -0.0007    -0.387    -0.138    -0.129  0.0015  0.9996  0.0296
    66 H(1)   Bbb    -0.0007    -0.363    -0.130    -0.121 -0.4806 -0.0253  0.8766
              Bcc     0.0014     0.750     0.268     0.250  0.8770 -0.0155  0.4803
 
              Baa    -0.0032    -1.692    -0.604    -0.565 -0.0471  0.9960  0.0758
    67 H(1)   Bbb    -0.0020    -1.068    -0.381    -0.356  0.8334  0.0811 -0.5467
              Bcc     0.0052     2.761     0.985     0.921  0.5507 -0.0374  0.8339
 

 ---------------------------------------------------------------------------------

 No NMR shielding tensors so no spin-rotation constants.
 Leave Link  601 at Thu Nov  6 05:00:08 2025, MaxMem= 30870077440 cpu:             190.8 elap:               3.3
 (Enter /public/software/gauss/g16/l9999.exe)
 1\1\GINC-CU015\SP\UM062X\def2TZVPP\C33H26B1F2N5(1-,2)\BAIDING\06-Nov-2
 025\0\\#p M062X/DEF2TZVPP scrf=(solvent=water) em=GD3\\Energy calculat
 ion for M100032143_reduced\\-1,2\C,0,-3.297941,3.12772,0.044841\C,0,-1
 .894584,2.591705,0.046399\C,0,-0.752156,3.387767,0.003853\C,0,0.388182
 ,2.560253,-0.003516\C,0,1.774427,2.922628,-0.057983\C,0,2.255658,4.195
 895,0.025297\C,0,3.653935,4.601529,-0.048843\C,0,4.727045,3.696188,-0.
 220451\C,0,6.042615,4.145868,-0.280919\C,0,6.337527,5.510273,-0.173932
 \C,0,5.291293,6.421131,-0.004087\C,0,3.973287,5.973842,0.057689\N,0,-0
 .049911,1.242975,0.029942\C,0,-1.441703,1.231602,0.069295\C,0,-2.15449
 6,0.00516,0.104343\C,0,-1.446504,-1.224023,0.071651\C,0,-1.904152,-2.5
 82708,0.065111\C,0,-3.309212,-3.11389,0.083254\C,0,-0.764773,-3.383139
 ,0.022189\C,0,0.378363,-2.559762,0.001478\C,0,1.763115,-2.927025,-0.05
 6768\C,0,2.240746,-4.201365,0.031131\C,0,3.637472,-4.611654,-0.046267\
 C,0,3.95302,-5.984441,0.065481\C,0,5.269418,-6.436058,0.00099\C,0,6.31
 7812,-5.529214,-0.176871\C,0,6.026678,-4.164424,-0.289162\C,0,4.712717
 ,-3.710432,-0.226035\N,0,-0.054863,-1.240584,0.026219\B,0,0.836627,-0.
 000781,0.211257\F,0,1.880861,-0.001392,-0.749749\F,0,1.442164,-0.00411
 4,1.490789\C,0,-3.647409,0.008641,0.166791\C,0,-4.420998,-0.029452,-1.
 003756\C,0,-5.813684,-0.025248,-0.956336\C,0,-6.460531,0.01748,0.28479
 \C,0,-5.709916,0.055447,1.464465\C,0,-4.318562,0.051057,1.398891\N,0,-
 7.876045,0.02559,0.444057\N,0,-8.585105,-0.006799,-0.56745\N,0,-9.3540
 93,-0.033387,-1.410239\H,0,-3.859627,2.838376,0.939486\H,0,-3.272421,4
 .221148,0.008978\H,0,-3.878972,2.780857,-0.816346\H,0,-0.741196,4.4693
 9,-0.041987\H,0,2.471105,2.101316,-0.189021\H,0,1.54952,5.013482,0.162
 061\H,0,4.528877,2.63227,-0.306334\H,0,6.846641,3.426952,-0.41301\H,0,
 7.365873,5.855349,-0.222508\H,0,5.502351,7.483608,0.080643\H,0,3.16691
 8,6.690916,0.190211\H,0,-3.874365,-2.776185,0.958347\H,0,-3.884794,-2.
 811106,-0.798193\H,0,-3.28703,-4.20779,0.104156\H,0,-0.757862,-4.46521
 ,-0.012721\H,0,2.461781,-2.108585,-0.19512\H,0,1.53265,-5.016095,0.174
 633\H,0,3.144954,-6.698417,0.20426\H,0,5.477547,-7.498772,0.089899\H,0
 ,7.344919,-5.877663,-0.227547\H,0,6.832403,-3.448591,-0.427482\H,0,4.5
 17484,-2.646321,-0.31616\H,0,-3.925748,-0.06211,-1.969477\H,0,-6.38635
 6,-0.054181,-1.878463\H,0,-6.221361,0.087799,2.420814\H,0,-3.743672,0.
 080354,2.319454\\Version=ES64L-G16RevA.03\State=2-A\HF=-1771.7019413\S
 2=0.799323\S2-1=0.\S2A=0.751853\RMSD=4.785e-09\Dipole=-1.8671385,-0.00
 09397,-0.4867487\Quadrupole=-7.7559041,6.4652313,1.2906728,0.0191962,-
 2.0114106,0.0966328\PG=C01 [X(C33H26B1F2N5)]\\@


 The most important thing in communication is to hear what isn't being said.
 -- Peter F. Drucker
 Job cpu time:       1 days  0 hours 34 minutes 51.2 seconds.
 Elapsed time:       0 days  0 hours 23 minutes 21.2 seconds.
 File lengths (MBytes):  RWF=   2878 Int=      0 D2E=      0 Chk=    187 Scr=      1
 Normal termination of Gaussian 16 at Thu Nov  6 05:00:09 2025.
