 Entering Gaussian System, Link 0=g16
 Input=M100032091_reduced_sp.gjf
 Output=M100032091_reduced_sp.log
 Initial command:
 /public/software/gauss/g16/l1.exe "/public/home/baiding/1101_v2_sp/tmp_M100032091_reduced_sp_1568608/Gau-4117789.inp" -scrdir="/public/home/baiding/1101_v2_sp/tmp_M100032091_reduced_sp_1568608/"
 Entering Link 1 = /public/software/gauss/g16/l1.exe PID=   4117790.
  
 Copyright (c) 1988,1990,1992,1993,1995,1998,2003,2009,2016,
            Gaussian, Inc.  All Rights Reserved.
  
 This is part of the Gaussian(R) 16 program.  It is based on
 the Gaussian(R) 09 system (copyright 2009, Gaussian, Inc.),
 the Gaussian(R) 03 system (copyright 2003, Gaussian, Inc.),
 the Gaussian(R) 98 system (copyright 1998, Gaussian, Inc.),
 the Gaussian(R) 94 system (copyright 1995, Gaussian, Inc.),
 the Gaussian 92(TM) system (copyright 1992, Gaussian, Inc.),
 the Gaussian 90(TM) system (copyright 1990, Gaussian, Inc.),
 the Gaussian 88(TM) system (copyright 1988, Gaussian, Inc.),
 the Gaussian 86(TM) system (copyright 1986, Carnegie Mellon
 University), and the Gaussian 82(TM) system (copyright 1983,
 Carnegie Mellon University). Gaussian is a federally registered
 trademark of Gaussian, Inc.
  
 This software contains proprietary and confidential information,
 including trade secrets, belonging to Gaussian, Inc.
  
 This software is provided under written license and may be
 used, copied, transmitted, or stored only in accord with that
 written license.
  
 The following legend is applicable only to US Government
 contracts under FAR:
  
                    RESTRICTED RIGHTS LEGEND
  
 Use, reproduction and disclosure by the US Government is
 subject to restrictions as set forth in subparagraphs (a)
 and (c) of the Commercial Computer Software - Restricted
 Rights clause in FAR 52.227-19.
  
 Gaussian, Inc.
 340 Quinnipiac St., Bldg. 40, Wallingford CT 06492
  
  
 ---------------------------------------------------------------
 Warning -- This program may not be used in any manner that
 competes with the business of Gaussian, Inc. or will provide
 assistance to any competitor of Gaussian, Inc.  The licensee
 of this program is prohibited from giving any competitor of
 Gaussian, Inc. access to this program.  By using this program,
 the user acknowledges that Gaussian, Inc. is engaged in the
 business of creating and licensing software in the field of
 computational chemistry and represents and warrants to the
 licensee that it is not a competitor of Gaussian, Inc. and that
 it will not use this program in any manner prohibited above.
 ---------------------------------------------------------------
  

 Cite this work as:
 Gaussian 16, Revision A.03,
 M. J. Frisch, G. W. Trucks, H. B. Schlegel, G. E. Scuseria, 
 M. A. Robb, J. R. Cheeseman, G. Scalmani, V. Barone, 
 G. A. Petersson, H. Nakatsuji, X. Li, M. Caricato, A. V. Marenich, 
 J. Bloino, B. G. Janesko, R. Gomperts, B. Mennucci, H. P. Hratchian, 
 J. V. Ortiz, A. F. Izmaylov, J. L. Sonnenberg, D. Williams-Young, 
 F. Ding, F. Lipparini, F. Egidi, J. Goings, B. Peng, A. Petrone, 
 T. Henderson, D. Ranasinghe, V. G. Zakrzewski, J. Gao, N. Rega, 
 G. Zheng, W. Liang, M. Hada, M. Ehara, K. Toyota, R. Fukuda, 
 J. Hasegawa, M. Ishida, T. Nakajima, Y. Honda, O. Kitao, H. Nakai, 
 T. Vreven, K. Throssell, J. A. Montgomery, Jr., J. E. Peralta, 
 F. Ogliaro, M. J. Bearpark, J. J. Heyd, E. N. Brothers, K. N. Kudin, 
 V. N. Staroverov, T. A. Keith, R. Kobayashi, J. Normand, 
 K. Raghavachari, A. P. Rendell, J. C. Burant, S. S. Iyengar, 
 J. Tomasi, M. Cossi, J. M. Millam, M. Klene, C. Adamo, R. Cammi, 
 J. W. Ochterski, R. L. Martin, K. Morokuma, O. Farkas, 
 J. B. Foresman, and D. J. Fox, Gaussian, Inc., Wallingford CT, 2016.
 
 ******************************************
 Gaussian 16:  ES64L-G16RevA.03 25-Dec-2016
                 6-Nov-2025 
 ******************************************
 %nprocshared=64
 Will use up to   64 processors via shared memory.
 %mem=230GB
 %chk=M100032091_reduced_sp.chk
 ----------------------------------------------
 #p M062X/DEF2TZVPP scrf=(solvent=water) em=GD3
 ----------------------------------------------
 1/38=1,172=1/1;
 2/12=2,17=6,18=5,40=1/2;
 3/5=44,7=202,11=2,25=1,30=1,70=2201,72=1,74=-55,124=31/1,2,3;
 4//1;
 5/5=2,38=5,53=1/2;
 6/7=2,8=2,9=2,10=2,28=1/1;
 99/5=1,9=1/99;
 Leave Link    1 at Thu Nov  6 03:52:10 2025, MaxMem= 30870077440 cpu:               9.7 elap:               0.2
 (Enter /public/software/gauss/g16/l101.exe)
 -----------------------------------------
 Energy calculation for M100032091_reduced
 -----------------------------------------
 Symbolic Z-matrix:
 Charge = -1 Multiplicity = 2
 C                     2.29384  -4.30258   0.72998 
 C                     2.20345  -2.84505   0.39042 
 C                     3.24379  -1.92229   0.45143 
 I                     5.22167  -2.378     0.98833 
 C                     2.78722  -0.63119   0.06697 
 C                     3.61347   0.5318    0.01012 
 C                     3.38334   1.77799  -0.50648 
 C                     4.33122   2.87619  -0.48105 
 C                     3.98649   4.08037  -1.14471 
 C                     4.83969   5.17122  -1.17061 
 C                     6.08879   5.09871  -0.52194 
 C                     6.97554   6.21304  -0.54172 
 N                     7.70386   7.12667  -0.55841 
 C                     6.45279   3.91244   0.15032 
 C                     5.59086   2.82961   0.16975 
 N                     1.43372  -0.76425  -0.22144 
 C                     1.05497  -2.09546  -0.03607 
 C                    -0.28425  -2.51785  -0.22086 
 C                    -0.65549  -3.95603  -0.06506 
 C                    -1.26726  -4.41563   1.11221 
 C                    -1.62144  -5.75899   1.25463 
 C                    -1.37431  -6.66363   0.21849 
 C                    -0.76929  -6.21722  -0.9593 
 C                    -0.41139  -4.87429  -1.09861 
 C                    -1.29412  -1.56249  -0.53452 
 C                    -2.69294  -1.70768  -0.77279 
 C                    -3.50507  -2.96622  -0.85004 
 C                    -3.17858  -0.39877  -0.95689 
 I                    -5.13708   0.07537  -1.52888 
 C                    -2.1151    0.52032  -0.85827 
 C                    -2.04156   1.94928  -1.11489 
 C                    -2.82061   2.97272  -0.68172 
 C                    -3.84822   3.03144   0.35846 
 C                    -3.99112   2.06412   1.37823 
 C                    -4.938     2.2125    2.38028 
 C                    -5.78481   3.33826   2.38852 
 C                    -6.76546   3.48767   3.41452 
 N                    -7.56716   3.60924   4.25435 
 C                    -5.65363   4.31819   1.38764 
 C                    -4.69141   4.16364   0.39968 
 N                    -0.97077  -0.21697  -0.62558 
 B                     0.44539   0.37981  -0.52949 
 F                     0.76449   0.98816  -1.77371 
 F                     0.49418   1.36694   0.46912 
 H                     2.1953   -4.94005  -0.15505 
 H                     3.26152  -4.5198    1.18804 
 H                     1.5135   -4.60821   1.4316 
 H                     4.5955    0.34594   0.43627 
 H                     2.44902   1.9891   -1.00964 
 H                     3.02599   4.14485  -1.64788 
 H                     4.55338   6.08131  -1.68771 
 H                     7.41184   3.85603   0.65496 
 H                     5.89545   1.93586   0.70371 
 H                    -1.46107  -3.71538   1.91975 
 H                    -2.08975  -6.0986    2.17416 
 H                    -1.65139  -7.70815   0.328 
 H                    -0.57619  -6.91357  -1.77046 
 H                     0.05786  -4.53044  -2.016 
 H                    -4.46272  -2.7655   -1.33718 
 H                    -2.99641  -3.74748  -1.41951 
 H                    -3.72309  -3.38164   0.14075 
 H                    -1.21648   2.22986  -1.76669 
 H                    -2.61246   3.93979  -1.13663 
 H                    -3.34114   1.19728   1.39207 
 H                    -5.02841   1.46626   3.16264 
 H                    -6.29947   5.18991   1.39682 
 H                    -4.58468   4.92922  -0.36327 
 
 ITRead=  0  0  0  0  0  0  0  0  0  0  0  0  0  0  0  0  0  0  0  0
 ITRead=  0  0  0  0  0  0  0  0  0  0  0  0  0  0  0  0  0  0  0  0
 ITRead=  0  0  0  0  0  0  0  0  0  0  0  0  0  0  0  0  0  0  0  0
 ITRead=  0  0  0  0  0  0  0
 MicOpt= -1 -1 -1 -1 -1 -1 -1 -1 -1 -1 -1 -1 -1 -1 -1 -1 -1 -1 -1 -1
 MicOpt= -1 -1 -1 -1 -1 -1 -1 -1 -1 -1 -1 -1 -1 -1 -1 -1 -1 -1 -1 -1
 MicOpt= -1 -1 -1 -1 -1 -1 -1 -1 -1 -1 -1 -1 -1 -1 -1 -1 -1 -1 -1 -1
 MicOpt= -1 -1 -1 -1 -1 -1 -1
 NAtoms=     67 NQM=       67 NQMF=       0 NMMI=      0 NMMIF=      0
                NMic=       0 NMicF=      0.
                    Isotopes and Nuclear Properties:
 (Nuclear quadrupole moments (NQMom) in fm**2, nuclear magnetic moments (NMagM)
  in nuclear magnetons)

  Atom         1           2           3           4           5           6           7           8           9          10
 IAtWgt=          12          12          12         127          12          12          12          12          12          12
 AtmWgt=  12.0000000  12.0000000  12.0000000 126.9004000  12.0000000  12.0000000  12.0000000  12.0000000  12.0000000  12.0000000
 NucSpn=           0           0           0           5           0           0           0           0           0           0
 AtZEff=  -0.0000000  -0.0000000  -0.0000000  -0.0000000  -0.0000000  -0.0000000  -0.0000000  -0.0000000  -0.0000000  -0.0000000
 NQMom=    0.0000000   0.0000000   0.0000000 -71.0000000   0.0000000   0.0000000   0.0000000   0.0000000   0.0000000   0.0000000
 NMagM=    0.0000000   0.0000000   0.0000000   2.8132800   0.0000000   0.0000000   0.0000000   0.0000000   0.0000000   0.0000000
 AtZNuc=   6.0000000   6.0000000   6.0000000  53.0000000   6.0000000   6.0000000   6.0000000   6.0000000   6.0000000   6.0000000

  Atom        11          12          13          14          15          16          17          18          19          20
 IAtWgt=          12          12          14          12          12          14          12          12          12          12
 AtmWgt=  12.0000000  12.0000000  14.0030740  12.0000000  12.0000000  14.0030740  12.0000000  12.0000000  12.0000000  12.0000000
 NucSpn=           0           0           2           0           0           2           0           0           0           0
 AtZEff=  -0.0000000  -0.0000000  -0.0000000  -0.0000000  -0.0000000  -0.0000000  -0.0000000  -0.0000000  -0.0000000  -0.0000000
 NQMom=    0.0000000   0.0000000   2.0440000   0.0000000   0.0000000   2.0440000   0.0000000   0.0000000   0.0000000   0.0000000
 NMagM=    0.0000000   0.0000000   0.4037610   0.0000000   0.0000000   0.4037610   0.0000000   0.0000000   0.0000000   0.0000000
 AtZNuc=   6.0000000   6.0000000   7.0000000   6.0000000   6.0000000   7.0000000   6.0000000   6.0000000   6.0000000   6.0000000

  Atom        21          22          23          24          25          26          27          28          29          30
 IAtWgt=          12          12          12          12          12          12          12          12         127          12
 AtmWgt=  12.0000000  12.0000000  12.0000000  12.0000000  12.0000000  12.0000000  12.0000000  12.0000000 126.9004000  12.0000000
 NucSpn=           0           0           0           0           0           0           0           0           5           0
 AtZEff=  -0.0000000  -0.0000000  -0.0000000  -0.0000000  -0.0000000  -0.0000000  -0.0000000  -0.0000000  -0.0000000  -0.0000000
 NQMom=    0.0000000   0.0000000   0.0000000   0.0000000   0.0000000   0.0000000   0.0000000   0.0000000 -71.0000000   0.0000000
 NMagM=    0.0000000   0.0000000   0.0000000   0.0000000   0.0000000   0.0000000   0.0000000   0.0000000   2.8132800   0.0000000
 AtZNuc=   6.0000000   6.0000000   6.0000000   6.0000000   6.0000000   6.0000000   6.0000000   6.0000000  53.0000000   6.0000000

  Atom        31          32          33          34          35          36          37          38          39          40
 IAtWgt=          12          12          12          12          12          12          12          14          12          12
 AtmWgt=  12.0000000  12.0000000  12.0000000  12.0000000  12.0000000  12.0000000  12.0000000  14.0030740  12.0000000  12.0000000
 NucSpn=           0           0           0           0           0           0           0           2           0           0
 AtZEff=  -0.0000000  -0.0000000  -0.0000000  -0.0000000  -0.0000000  -0.0000000  -0.0000000  -0.0000000  -0.0000000  -0.0000000
 NQMom=    0.0000000   0.0000000   0.0000000   0.0000000   0.0000000   0.0000000   0.0000000   2.0440000   0.0000000   0.0000000
 NMagM=    0.0000000   0.0000000   0.0000000   0.0000000   0.0000000   0.0000000   0.0000000   0.4037610   0.0000000   0.0000000
 AtZNuc=   6.0000000   6.0000000   6.0000000   6.0000000   6.0000000   6.0000000   6.0000000   7.0000000   6.0000000   6.0000000

  Atom        41          42          43          44          45          46          47          48          49          50
 IAtWgt=          14          11          19          19           1           1           1           1           1           1
 AtmWgt=  14.0030740  11.0093053  18.9984033  18.9984033   1.0078250   1.0078250   1.0078250   1.0078250   1.0078250   1.0078250
 NucSpn=           2           3           1           1           1           1           1           1           1           1
 AtZEff=  -0.0000000  -0.0000000  -0.0000000  -0.0000000  -0.0000000  -0.0000000  -0.0000000  -0.0000000  -0.0000000  -0.0000000
 NQMom=    2.0440000   4.0590000   0.0000000   0.0000000   0.0000000   0.0000000   0.0000000   0.0000000   0.0000000   0.0000000
 NMagM=    0.4037610   2.6886370   2.6288670   2.6288670   2.7928460   2.7928460   2.7928460   2.7928460   2.7928460   2.7928460
 AtZNuc=   7.0000000   5.0000000   9.0000000   9.0000000   1.0000000   1.0000000   1.0000000   1.0000000   1.0000000   1.0000000

  Atom        51          52          53          54          55          56          57          58          59          60
 IAtWgt=           1           1           1           1           1           1           1           1           1           1
 AtmWgt=   1.0078250   1.0078250   1.0078250   1.0078250   1.0078250   1.0078250   1.0078250   1.0078250   1.0078250   1.0078250
 NucSpn=           1           1           1           1           1           1           1           1           1           1
 AtZEff=  -0.0000000  -0.0000000  -0.0000000  -0.0000000  -0.0000000  -0.0000000  -0.0000000  -0.0000000  -0.0000000  -0.0000000
 NQMom=    0.0000000   0.0000000   0.0000000   0.0000000   0.0000000   0.0000000   0.0000000   0.0000000   0.0000000   0.0000000
 NMagM=    2.7928460   2.7928460   2.7928460   2.7928460   2.7928460   2.7928460   2.7928460   2.7928460   2.7928460   2.7928460
 AtZNuc=   1.0000000   1.0000000   1.0000000   1.0000000   1.0000000   1.0000000   1.0000000   1.0000000   1.0000000   1.0000000

  Atom        61          62          63          64          65          66          67
 IAtWgt=           1           1           1           1           1           1           1
 AtmWgt=   1.0078250   1.0078250   1.0078250   1.0078250   1.0078250   1.0078250   1.0078250
 NucSpn=           1           1           1           1           1           1           1
 AtZEff=  -0.0000000  -0.0000000  -0.0000000  -0.0000000  -0.0000000  -0.0000000  -0.0000000
 NQMom=    0.0000000   0.0000000   0.0000000   0.0000000   0.0000000   0.0000000   0.0000000
 NMagM=    2.7928460   2.7928460   2.7928460   2.7928460   2.7928460   2.7928460   2.7928460
 AtZNuc=   1.0000000   1.0000000   1.0000000   1.0000000   1.0000000   1.0000000   1.0000000
 Leave Link  101 at Thu Nov  6 03:52:10 2025, MaxMem= 30870077440 cpu:               4.0 elap:               0.1
 (Enter /public/software/gauss/g16/l202.exe)
 Stoichiometry    C35H23BF2I2N4(1-,2)
 Framework group  C1[X(C35H23BF2I2N4)]
 Deg. of freedom   195
 Full point group                 C1      NOp   1
 Largest Abelian subgroup         C1      NOp   1
 Largest concise Abelian subgroup C1      NOp   1
                         Standard orientation:                         
 ---------------------------------------------------------------------
 Center     Atomic      Atomic             Coordinates (Angstroms)
 Number     Number       Type             X           Y           Z
 ---------------------------------------------------------------------
      1          6           0        2.293839   -4.302580    0.729980
      2          6           0        2.203446   -2.845047    0.390415
      3          6           0        3.243792   -1.922290    0.451426
      4         53           0        5.221667   -2.378000    0.988334
      5          6           0        2.787215   -0.631187    0.066974
      6          6           0        3.613465    0.531802    0.010124
      7          6           0        3.383336    1.777994   -0.506484
      8          6           0        4.331223    2.876191   -0.481054
      9          6           0        3.986486    4.080374   -1.144709
     10          6           0        4.839694    5.171218   -1.170611
     11          6           0        6.088791    5.098710   -0.521944
     12          6           0        6.975538    6.213035   -0.541724
     13          7           0        7.703854    7.126667   -0.558408
     14          6           0        6.452789    3.912444    0.150322
     15          6           0        5.590862    2.829606    0.169751
     16          7           0        1.433717   -0.764251   -0.221436
     17          6           0        1.054968   -2.095459   -0.036070
     18          6           0       -0.284249   -2.517852   -0.220857
     19          6           0       -0.655489   -3.956032   -0.065058
     20          6           0       -1.267256   -4.415626    1.112210
     21          6           0       -1.621444   -5.758994    1.254625
     22          6           0       -1.374314   -6.663626    0.218494
     23          6           0       -0.769293   -6.217215   -0.959298
     24          6           0       -0.411391   -4.874290   -1.098613
     25          6           0       -1.294122   -1.562493   -0.534522
     26          6           0       -2.692936   -1.707682   -0.772792
     27          6           0       -3.505071   -2.966217   -0.850035
     28          6           0       -3.178580   -0.398771   -0.956887
     29         53           0       -5.137079    0.075373   -1.528882
     30          6           0       -2.115101    0.520315   -0.858273
     31          6           0       -2.041558    1.949282   -1.114892
     32          6           0       -2.820608    2.972716   -0.681719
     33          6           0       -3.848221    3.031438    0.358457
     34          6           0       -3.991116    2.064123    1.378230
     35          6           0       -4.938001    2.212499    2.380276
     36          6           0       -5.784812    3.338263    2.388515
     37          6           0       -6.765463    3.487668    3.414520
     38          7           0       -7.567162    3.609238    4.254351
     39          6           0       -5.653632    4.318190    1.387636
     40          6           0       -4.691411    4.163638    0.399682
     41          7           0       -0.970771   -0.216967   -0.625580
     42          5           0        0.445394    0.379811   -0.529486
     43          9           0        0.764494    0.988158   -1.773710
     44          9           0        0.494179    1.366942    0.469115
     45          1           0        2.195298   -4.940047   -0.155048
     46          1           0        3.261518   -4.519796    1.188040
     47          1           0        1.513502   -4.608214    1.431600
     48          1           0        4.595497    0.345944    0.436271
     49          1           0        2.449021    1.989103   -1.009642
     50          1           0        3.025987    4.144848   -1.647876
     51          1           0        4.553381    6.081306   -1.687713
     52          1           0        7.411843    3.856031    0.654955
     53          1           0        5.895454    1.935863    0.703706
     54          1           0       -1.461072   -3.715384    1.919753
     55          1           0       -2.089754   -6.098596    2.174164
     56          1           0       -1.651385   -7.708146    0.328002
     57          1           0       -0.576192   -6.913566   -1.770458
     58          1           0        0.057860   -4.530442   -2.016003
     59          1           0       -4.462722   -2.765503   -1.337182
     60          1           0       -2.996413   -3.747483   -1.419513
     61          1           0       -3.723086   -3.381636    0.140754
     62          1           0       -1.216476    2.229860   -1.766693
     63          1           0       -2.612455    3.939791   -1.136628
     64          1           0       -3.341144    1.197283    1.392066
     65          1           0       -5.028412    1.466260    3.162641
     66          1           0       -6.299467    5.189908    1.396823
     67          1           0       -4.584675    4.929215   -0.363266
 ---------------------------------------------------------------------
 Rotational constants (GHZ):           0.0563686           0.0309770           0.0222761
 Leave Link  202 at Thu Nov  6 03:52:10 2025, MaxMem= 30870077440 cpu:               0.2 elap:               0.0
 (Enter /public/software/gauss/g16/l301.exe)
 Standard basis: def2TZVPP (5D, 7F)
 Ernie: Thresh=  0.10000D-02 Tol=  0.10000D-05 Strict=F.
 There are  1975 symmetry adapted cartesian basis functions of A   symmetry.
 There are  1724 symmetry adapted basis functions of A   symmetry.
  1724 basis functions,  2751 primitive gaussians,  1975 cartesian basis functions
   168 alpha electrons      167 beta electrons
       nuclear repulsion energy      5527.0629754444 Hartrees.
 IExCor= 4336 DFT=T Ex+Corr=M062X ExCW=0 ScaHFX=  0.540000
 ScaDFX=  1.000000  1.000000  1.000000  1.000000 ScalE2=  1.000000  1.000000
 IRadAn=      5 IRanWt=     -1 IRanGd=            0 ICorTp=0 IEmpDi=131
 NAtoms=   67 NActive=   67 NUniq=   67 SFac= 1.00D+00 NAtFMM=   60 NAOKFM=T Big=T
 Integral buffers will be    131072 words long.
 Raffenetti 2 integral format.
 Two-electron integral symmetry is turned on.
 R6Disp:  Grimme-D3 Dispersion energy=       -0.0062204470 Hartrees.
 Nuclear repulsion after empirical dispersion term =     5527.0567549973 Hartrees.
 ------------------------------------------------------------------------------
 Polarizable Continuum Model (PCM)
 =================================
 Model                : PCM.
 Atomic radii         : UFF (Universal Force Field).
 Polarization charges : Total charges.
 Charge compensation  : None.
 Solution method      : On-the-fly selection.
 Cavity type          : Scaled VdW (van der Waals Surface) (Alpha=1.100).
 Cavity algorithm     : GePol (No added spheres)
                        Default sphere list used, NSphG=   67.
                        Lebedev-Laikov grids with approx.  5.0 points / Ang**2.
                        Smoothing algorithm: York/Karplus (Gamma=1.0000).
                        Polarization charges: spherical gaussians, with
                                              point-specific exponents (IZeta= 3).
                        Self-potential: point-specific (ISelfS= 7).
                        Self-field    : sphere-specific E.n sum rule (ISelfD= 2).
 Solvent              : Water, Eps=  78.355300 Eps(inf)=   1.777849
 ------------------------------------------------------------------------------
 GePol: Number of generator spheres                  =      67
 GePol: Total number of spheres                      =      67
 GePol: Number of exposed spheres                    =      67 (100.00%)
 GePol: Number of points                             =    5256
 GePol: Average weight of points                     =       0.13
 GePol: Minimum weight of points                     =   0.83D-10
 GePol: Maximum weight of points                     =    0.20577
 GePol: Number of points with low weight             =     336
 GePol: Fraction of low-weight points (<1% of avg)   =       6.39%
 GePol: Cavity surface area                          =    694.405 Ang**2
 GePol: Cavity volume                                =    818.819 Ang**3
 Leave Link  301 at Thu Nov  6 03:52:10 2025, MaxMem= 30870077440 cpu:               3.9 elap:               0.1
 (Enter /public/software/gauss/g16/l302.exe)
 NPDir=0 NMtPBC=     1 NCelOv=     1 NCel=       1 NClECP=     1 NCelD=      1
         NCelK=      1 NCelE2=     1 NClLst=     1 CellRange=     0.0.
 One-electron integrals computed using PRISM.
 One-electron integral symmetry used in STVInt
   1 Symmetry operations used in ECPInt.
 ECPInt:  NShTT=  200028 NPrTT=  591304 LenC2=  135208 LenP2D=  266280.
 LDataN:  DoStor=T MaxTD1= 7 Len=  274
 Number of processors reduced to  55 by ecpmxn.
 NBasis=  1724 RedAO= T EigKep=  3.68D-06  NBF=  1724
 NBsUse=  1724 1.00D-06 EigRej= -1.00D+00 NBFU=  1724
 Precomputing XC quadrature grid using
 IXCGrd= 4 IRadAn=           5 IRanWt=          -1 IRanGd=           0 AccXCQ= 0.00D+00.
 Defaulting to unpruned grid for atomic number  53.
 Defaulting to unpruned grid for atomic number  53.
 Generated NRdTot=       0 NPtTot=           0 NUsed=           0 NTot=          32
 NSgBfM=  1820  1820  1820  1820  1820 MxSgAt=    67 MxSgA2=    67.
 Leave Link  302 at Thu Nov  6 03:52:21 2025, MaxMem= 30870077440 cpu:             676.9 elap:              10.7
 (Enter /public/software/gauss/g16/l303.exe)
 DipDrv:  MaxL=1.
 Leave Link  303 at Thu Nov  6 03:52:22 2025, MaxMem= 30870077440 cpu:              24.7 elap:               0.4
 (Enter /public/software/gauss/g16/l401.exe)
 ExpMin= 6.06D-02 ExpMax= 3.55D+04 ExpMxC= 1.21D+03 IAcc=3 IRadAn=         5 AccDes= 0.00D+00
 Harris functional with IExCor= 1009 and IRadAn=       5 diagonalized for initial guess.
 HarFok:  IExCor= 1009 AccDes= 0.00D+00 IRadAn=         5 IDoV= 1 UseB2=F ITyADJ=14
 ICtDFT=  3500011 ScaDFX=  1.000000  1.000000  1.000000  1.000000
 Defaulting to unpruned grid for atomic number  53.
 FoFCou: FMM=F IPFlag=           0 FMFlag=      100000 FMFlg1=        2001
         NFxFlg=           0 DoJE=T BraDBF=F KetDBF=T FulRan=T
         wScrn=  0.000000 ICntrl=       500 IOpCl=  0 I1Cent=   200000004 NGrid=           0
         NMat0=    1 NMatS0=      1 NMatT0=    0 NMatD0=    1 NMtDS0=    0 NMtDT0=    0
 Petite list used in FoFCou.
 Harris En= -2386.36373823687    
 JPrj=0 DoOrth=F DoCkMO=F.
 Initial guess <Sx>= 0.0000 <Sy>= 0.0000 <Sz>= 0.5000 <S**2>= 0.7500 S= 0.5000
 Leave Link  401 at Thu Nov  6 03:52:32 2025, MaxMem= 30870077440 cpu:             643.9 elap:              10.1
 (Enter /public/software/gauss/g16/l502.exe)
 Integral symmetry usage will be decided dynamically.
 UHF open shell SCF:
 Using DIIS extrapolation, IDIIS=  1040.
 NGot= 30870077440 LenX= 30862133335 LenY= 30858230735
 Requested convergence on RMS density matrix=1.00D-08 within 128 cycles.
 Requested convergence on MAX density matrix=1.00D-06.
 Requested convergence on             energy=1.00D-06.
 No special actions if energy rises.
 Fock matrices will be formed incrementally for  20 cycles.

 Cycle   1  Pass 1  IDiag  1:
 FoFJK:  IHMeth= 1 ICntrl=       0 DoSepK=F KAlg= 0 I1Cent=           0 FoldK=F
 IRaf= 650000000 NMat=       1 IRICut=       1 DoRegI=T DoRafI=F ISym2E= 0 IDoP0=0 IntGTp=1.
 FoFCou: FMM=T IPFlag=           0 FMFlag=      100000 FMFlg1=        2001
         NFxFlg=           0 DoJE=F BraDBF=F KetDBF=F FulRan=T
         wScrn=  0.000000 ICntrl=         0 IOpCl=  1 I1Cent=           0 NGrid=           0
         NMat0=    1 NMatS0=      1 NMatT0=    0 NMatD0=    1 NMtDS0=    0 NMtDT0=    0
 Symmetry not used in FoFCou.
 FMM levels:  10  Number of levels for PrismC:   9
 Defaulting to unpruned grid for atomic number  53.
 Defaulting to unpruned grid for atomic number  53.
 Defaulting to unpruned grid for atomic number  53.
 Defaulting to unpruned grid for atomic number  53.
 Defaulting to unpruned grid for atomic number  53.
 Defaulting to unpruned grid for atomic number  53.
 Defaulting to unpruned grid for atomic number  53.
 Defaulting to unpruned grid for atomic number  53.
 Defaulting to unpruned grid for atomic number  53.
 Defaulting to unpruned grid for atomic number  53.
 Defaulting to unpruned grid for atomic number  53.
 Defaulting to unpruned grid for atomic number  53.
 Defaulting to unpruned grid for atomic number  53.
 Defaulting to unpruned grid for atomic number  53.
 Defaulting to unpruned grid for atomic number  53.
 Defaulting to unpruned grid for atomic number  53.
 Defaulting to unpruned grid for atomic number  53.
 Defaulting to unpruned grid for atomic number  53.
 Defaulting to unpruned grid for atomic number  53.
 Defaulting to unpruned grid for atomic number  53.
 Defaulting to unpruned grid for atomic number  53.
 Defaulting to unpruned grid for atomic number  53.
 Defaulting to unpruned grid for atomic number  53.
 Defaulting to unpruned grid for atomic number  53.
 Defaulting to unpruned grid for atomic number  53.
 Defaulting to unpruned grid for atomic number  53.
 Defaulting to unpruned grid for atomic number  53.
 Defaulting to unpruned grid for atomic number  53.
 Defaulting to unpruned grid for atomic number  53.
 Defaulting to unpruned grid for atomic number  53.
 Defaulting to unpruned grid for atomic number  53.
 Defaulting to unpruned grid for atomic number  53.
 Defaulting to unpruned grid for atomic number  53.
 Defaulting to unpruned grid for atomic number  53.
 Defaulting to unpruned grid for atomic number  53.
 Defaulting to unpruned grid for atomic number  53.
 Defaulting to unpruned grid for atomic number  53.
 Defaulting to unpruned grid for atomic number  53.
 Defaulting to unpruned grid for atomic number  53.
 Defaulting to unpruned grid for atomic number  53.
 Defaulting to unpruned grid for atomic number  53.
 Defaulting to unpruned grid for atomic number  53.
 Defaulting to unpruned grid for atomic number  53.
 Defaulting to unpruned grid for atomic number  53.
 Defaulting to unpruned grid for atomic number  53.
 Defaulting to unpruned grid for atomic number  53.
 Defaulting to unpruned grid for atomic number  53.
 Defaulting to unpruned grid for atomic number  53.
 Defaulting to unpruned grid for atomic number  53.
 Defaulting to unpruned grid for atomic number  53.
 Defaulting to unpruned grid for atomic number  53.
 Defaulting to unpruned grid for atomic number  53.
 Defaulting to unpruned grid for atomic number  53.
 Defaulting to unpruned grid for atomic number  53.
 Defaulting to unpruned grid for atomic number  53.
 Defaulting to unpruned grid for atomic number  53.
 Defaulting to unpruned grid for atomic number  53.
 Defaulting to unpruned grid for atomic number  53.
 Defaulting to unpruned grid for atomic number  53.
 Defaulting to unpruned grid for atomic number  53.
 Defaulting to unpruned grid for atomic number  53.
 Defaulting to unpruned grid for atomic number  53.
 Defaulting to unpruned grid for atomic number  53.
 Defaulting to unpruned grid for atomic number  53.
 Inv3:  Mode=1 IEnd=    82876608.
 Iteration    1 A*A^-1 deviation from unit magnitude is 1.24D-14 for    238.
 Iteration    1 A*A^-1 deviation from orthogonality  is 1.13D-14 for   4642   1557.
 Iteration    1 A^-1*A deviation from unit magnitude is 1.33D-14 for    238.
 Iteration    1 A^-1*A deviation from orthogonality  is 2.56D-12 for   4651   4642.
 E= -2385.65466018736    
 DIIS: error= 1.48D-02 at cycle   1 NSaved=   1.
 NSaved= 1 IEnMin= 1 EnMin= -2385.65466018736     IErMin= 1 ErrMin= 1.48D-02
 ErrMax= 1.48D-02  0.00D+00 EMaxC= 1.00D-01 BMatC= 4.98D+00 BMatP= 4.98D+00
 IDIUse=3 WtCom= 8.52D-01 WtEn= 1.48D-01
 Coeff-Com:  0.100D+01
 Coeff-En:   0.100D+01
 Coeff:      0.100D+01
 Gap=     0.118 Goal=   None    Shift=    0.000
 Gap=     0.284 Goal=   None    Shift=    0.000
 GapD=    0.118 DampG=1.000 DampE=0.500 DampFc=0.5000 IDamp=-1.
 Damping current iteration by 5.00D-01
 RMSDP=1.74D-03 MaxDP=1.63D-01              OVMax= 1.76D-01

 Cycle   2  Pass 1  IDiag  1:
 RMSU=  8.67D-04    CP:  9.92D-01
 E= -2386.17787681749     Delta-E=       -0.523216630122 Rises=F Damp=T
 DIIS: error= 3.53D-03 at cycle   2 NSaved=   2.
 NSaved= 2 IEnMin= 2 EnMin= -2386.17787681749     IErMin= 2 ErrMin= 3.53D-03
 ErrMax= 3.53D-03  0.00D+00 EMaxC= 1.00D-01 BMatC= 4.53D-01 BMatP= 4.98D+00
 IDIUse=3 WtCom= 9.65D-01 WtEn= 3.53D-02
 Coeff-Com: -0.164D+00 0.116D+01
 Coeff-En:   0.000D+00 0.100D+01
 Coeff:     -0.158D+00 0.116D+01
 Gap=     0.176 Goal=   None    Shift=    0.000
 Gap=     0.142 Goal=   None    Shift=    0.000
 RMSDP=8.31D-04 MaxDP=8.76D-02 DE=-5.23D-01 OVMax= 1.09D-01

 Cycle   3  Pass 1  IDiag  1:
 RMSU=  7.64D-04    CP:  9.78D-01  1.37D+00
 E= -2386.62798727074     Delta-E=       -0.450110453257 Rises=F Damp=F
 DIIS: error= 4.16D-03 at cycle   3 NSaved=   3.
 NSaved= 3 IEnMin= 3 EnMin= -2386.62798727074     IErMin= 2 ErrMin= 3.53D-03
 ErrMax= 4.16D-03  0.00D+00 EMaxC= 1.00D-01 BMatC= 1.97D-01 BMatP= 4.53D-01
 IDIUse=3 WtCom= 9.58D-01 WtEn= 4.16D-02
 Coeff-Com: -0.132D+00 0.501D+00 0.631D+00
 Coeff-En:   0.000D+00 0.000D+00 0.100D+01
 Coeff:     -0.127D+00 0.481D+00 0.646D+00
 Gap=     0.121 Goal=   None    Shift=    0.000
 Gap=     0.141 Goal=   None    Shift=    0.000
 RMSDP=1.92D-04 MaxDP=1.61D-02 DE=-4.50D-01 OVMax= 4.08D-02

 Cycle   4  Pass 1  IDiag  1:
 RMSU=  1.84D-04    CP:  9.78D-01  1.41D+00  9.52D-01
 E= -2386.65841120126     Delta-E=       -0.030423930512 Rises=F Damp=F
 DIIS: error= 2.58D-03 at cycle   4 NSaved=   4.
 NSaved= 4 IEnMin= 4 EnMin= -2386.65841120126     IErMin= 4 ErrMin= 2.58D-03
 ErrMax= 2.58D-03  0.00D+00 EMaxC= 1.00D-01 BMatC= 5.92D-02 BMatP= 1.97D-01
 IDIUse=3 WtCom= 9.74D-01 WtEn= 2.58D-02
 Coeff-Com: -0.497D-01 0.126D+00 0.387D+00 0.538D+00
 Coeff-En:   0.000D+00 0.000D+00 0.237D+00 0.763D+00
 Coeff:     -0.484D-01 0.122D+00 0.383D+00 0.543D+00
 Gap=     0.122 Goal=   None    Shift=    0.000
 Gap=     0.145 Goal=   None    Shift=    0.000
 RMSDP=8.58D-05 MaxDP=1.05D-02 DE=-3.04D-02 OVMax= 2.25D-02

 Cycle   5  Pass 1  IDiag  1:
 RMSU=  7.61D-05    CP:  9.78D-01  1.41D+00  9.63D-01  7.93D-01
 E= -2386.67148350318     Delta-E=       -0.013072301927 Rises=F Damp=F
 DIIS: error= 4.94D-04 at cycle   5 NSaved=   5.
 NSaved= 5 IEnMin= 5 EnMin= -2386.67148350318     IErMin= 5 ErrMin= 4.94D-04
 ErrMax= 4.94D-04  0.00D+00 EMaxC= 1.00D-01 BMatC= 2.06D-03 BMatP= 5.92D-02
 IDIUse=3 WtCom= 9.95D-01 WtEn= 4.94D-03
 Coeff-Com: -0.139D-01 0.255D-01 0.131D+00 0.240D+00 0.617D+00
 Coeff-En:   0.000D+00 0.000D+00 0.000D+00 0.000D+00 0.100D+01
 Coeff:     -0.138D-01 0.253D-01 0.131D+00 0.239D+00 0.618D+00
 Gap=     0.125 Goal=   None    Shift=    0.000
 Gap=     0.147 Goal=   None    Shift=    0.000
 RMSDP=3.02D-05 MaxDP=6.30D-03 DE=-1.31D-02 OVMax= 1.51D-02

 Cycle   6  Pass 1  IDiag  1:
 RMSU=  2.85D-05    CP:  9.78D-01  1.41D+00  9.70D-01  8.26D-01  1.03D+00
 E= -2386.67207371546     Delta-E=       -0.000590212276 Rises=F Damp=F
 DIIS: error= 1.55D-04 at cycle   6 NSaved=   6.
 NSaved= 6 IEnMin= 6 EnMin= -2386.67207371546     IErMin= 6 ErrMin= 1.55D-04
 ErrMax= 1.55D-04  0.00D+00 EMaxC= 1.00D-01 BMatC= 3.35D-04 BMatP= 2.06D-03
 IDIUse=3 WtCom= 9.98D-01 WtEn= 1.55D-03
 Coeff-Com:  0.371D-03-0.440D-02 0.713D-02 0.336D-01 0.270D+00 0.693D+00
 Coeff-En:   0.000D+00 0.000D+00 0.000D+00 0.000D+00 0.000D+00 0.100D+01
 Coeff:      0.371D-03-0.439D-02 0.712D-02 0.335D-01 0.269D+00 0.694D+00
 Gap=     0.126 Goal=   None    Shift=    0.000
 Gap=     0.149 Goal=   None    Shift=    0.000
 RMSDP=1.91D-05 MaxDP=4.61D-03 DE=-5.90D-04 OVMax= 1.13D-02

 Cycle   7  Pass 1  IDiag  1:
 RMSU=  1.22D-05    CP:  9.78D-01  1.41D+00  9.75D-01  8.62D-01  1.17D+00
                    CP:  1.25D+00
 E= -2386.67227320452     Delta-E=       -0.000199489060 Rises=F Damp=F
 DIIS: error= 1.03D-04 at cycle   7 NSaved=   7.
 NSaved= 7 IEnMin= 7 EnMin= -2386.67227320452     IErMin= 7 ErrMin= 1.03D-04
 ErrMax= 1.03D-04  0.00D+00 EMaxC= 1.00D-01 BMatC= 9.06D-05 BMatP= 3.35D-04
 IDIUse=3 WtCom= 9.99D-01 WtEn= 1.03D-03
 Coeff-Com:  0.430D-02-0.929D-02-0.373D-01-0.595D-01-0.821D-01 0.268D+00
 Coeff-Com:  0.916D+00
 Coeff-En:   0.000D+00 0.000D+00 0.000D+00 0.000D+00 0.000D+00 0.000D+00
 Coeff-En:   0.100D+01
 Coeff:      0.430D-02-0.928D-02-0.372D-01-0.594D-01-0.821D-01 0.267D+00
 Coeff:      0.916D+00
 Gap=     0.128 Goal=   None    Shift=    0.000
 Gap=     0.150 Goal=   None    Shift=    0.000
 RMSDP=1.84D-05 MaxDP=5.23D-03 DE=-1.99D-04 OVMax= 1.22D-02

 Cycle   8  Pass 1  IDiag  1:
 RMSU=  6.95D-06    CP:  9.78D-01  1.41D+00  9.78D-01  8.83D-01  1.29D+00
                    CP:  1.61D+00  1.69D+00
 E= -2386.67238270818     Delta-E=       -0.000109503661 Rises=F Damp=F
 DIIS: error= 4.85D-05 at cycle   8 NSaved=   8.
 NSaved= 8 IEnMin= 8 EnMin= -2386.67238270818     IErMin= 8 ErrMin= 4.85D-05
 ErrMax= 4.85D-05  0.00D+00 EMaxC= 1.00D-01 BMatC= 2.98D-05 BMatP= 9.06D-05
 IDIUse=1 WtCom= 1.00D+00 WtEn= 0.00D+00
 Coeff-Com:  0.171D-02-0.265D-02-0.179D-01-0.342D-01-0.112D+00-0.109D+00
 Coeff-Com:  0.396D+00 0.878D+00
 Coeff:      0.171D-02-0.265D-02-0.179D-01-0.342D-01-0.112D+00-0.109D+00
 Coeff:      0.396D+00 0.878D+00
 Gap=     0.129 Goal=   None    Shift=    0.000
 Gap=     0.151 Goal=   None    Shift=    0.000
 RMSDP=1.15D-05 MaxDP=2.93D-03 DE=-1.10D-04 OVMax= 7.57D-03

 Cycle   9  Pass 1  IDiag  1:
 RMSU=  3.57D-06    CP:  9.78D-01  1.41D+00  9.79D-01  8.98D-01  1.36D+00
                    CP:  1.81D+00  2.22D+00  1.58D+00
 E= -2386.67241725039     Delta-E=       -0.000034542205 Rises=F Damp=F
 DIIS: error= 2.01D-05 at cycle   9 NSaved=   9.
 NSaved= 9 IEnMin= 9 EnMin= -2386.67241725039     IErMin= 9 ErrMin= 2.01D-05
 ErrMax= 2.01D-05  0.00D+00 EMaxC= 1.00D-01 BMatC= 6.67D-06 BMatP= 2.98D-05
 IDIUse=1 WtCom= 1.00D+00 WtEn= 0.00D+00
 Coeff-Com: -0.825D-03 0.217D-02 0.564D-02 0.743D-02-0.121D-01-0.128D+00
 Coeff-Com: -0.139D+00 0.333D+00 0.932D+00
 Coeff:     -0.825D-03 0.217D-02 0.564D-02 0.743D-02-0.121D-01-0.128D+00
 Coeff:     -0.139D+00 0.333D+00 0.932D+00
 Gap=     0.130 Goal=   None    Shift=    0.000
 Gap=     0.152 Goal=   None    Shift=    0.000
 RMSDP=6.06D-06 MaxDP=1.45D-03 DE=-3.45D-05 OVMax= 3.92D-03

 Cycle  10  Pass 1  IDiag  1:
 RMSU=  1.98D-06    CP:  9.78D-01  1.41D+00  9.79D-01  9.02D-01  1.38D+00
                    CP:  1.90D+00  2.52D+00  1.99D+00  1.36D+00
 E= -2386.67242426708     Delta-E=       -0.000007016699 Rises=F Damp=F
 DIIS: error= 7.52D-06 at cycle  10 NSaved=  10.
 NSaved=10 IEnMin=10 EnMin= -2386.67242426708     IErMin=10 ErrMin= 7.52D-06
 ErrMax= 7.52D-06  0.00D+00 EMaxC= 1.00D-01 BMatC= 1.14D-06 BMatP= 6.67D-06
 IDIUse=1 WtCom= 1.00D+00 WtEn= 0.00D+00
 Coeff-Com: -0.591D-03 0.130D-02 0.504D-02 0.854D-02 0.136D-01-0.343D-01
 Coeff-Com: -0.119D+00 0.245D-03 0.364D+00 0.761D+00
 Coeff:     -0.591D-03 0.130D-02 0.504D-02 0.854D-02 0.136D-01-0.343D-01
 Coeff:     -0.119D+00 0.245D-03 0.364D+00 0.761D+00
 Gap=     0.130 Goal=   None    Shift=    0.000
 Gap=     0.152 Goal=   None    Shift=    0.000
 RMSDP=1.68D-06 MaxDP=2.86D-04 DE=-7.02D-06 OVMax= 1.04D-03

 Cycle  11  Pass 1  IDiag  1:
 RMSU=  8.28D-07    CP:  9.78D-01  1.41D+00  9.79D-01  9.02D-01  1.38D+00
                    CP:  1.92D+00  2.58D+00  2.11D+00  1.53D+00  1.21D+00
 E= -2386.67242502675     Delta-E=       -0.000000759662 Rises=F Damp=F
 DIIS: error= 4.34D-06 at cycle  11 NSaved=  11.
 NSaved=11 IEnMin=11 EnMin= -2386.67242502675     IErMin=11 ErrMin= 4.34D-06
 ErrMax= 4.34D-06  0.00D+00 EMaxC= 1.00D-01 BMatC= 2.58D-07 BMatP= 1.14D-06
 IDIUse=1 WtCom= 1.00D+00 WtEn= 0.00D+00
 Coeff-Com: -0.103D-03 0.175D-03 0.115D-02 0.232D-02 0.728D-02 0.528D-02
 Coeff-Com: -0.265D-01-0.457D-01-0.397D-02 0.316D+00 0.744D+00
 Coeff:     -0.103D-03 0.175D-03 0.115D-02 0.232D-02 0.728D-02 0.528D-02
 Coeff:     -0.265D-01-0.457D-01-0.397D-02 0.316D+00 0.744D+00
 Gap=     0.130 Goal=   None    Shift=    0.000
 Gap=     0.152 Goal=   None    Shift=    0.000
 RMSDP=7.20D-07 MaxDP=1.41D-04 DE=-7.60D-07 OVMax= 4.17D-04

 Cycle  12  Pass 1  IDiag  1:
 RMSU=  3.96D-07    CP:  9.78D-01  1.41D+00  9.79D-01  9.02D-01  1.38D+00
                    CP:  1.92D+00  2.59D+00  2.13D+00  1.62D+00  1.41D+00
                    CP:  1.26D+00
 E= -2386.67242520558     Delta-E=       -0.000000178829 Rises=F Damp=F
 DIIS: error= 2.54D-06 at cycle  12 NSaved=  12.
 NSaved=12 IEnMin=12 EnMin= -2386.67242520558     IErMin=12 ErrMin= 2.54D-06
 ErrMax= 2.54D-06  0.00D+00 EMaxC= 1.00D-01 BMatC= 6.74D-08 BMatP= 2.58D-07
 IDIUse=1 WtCom= 1.00D+00 WtEn= 0.00D+00
 Coeff-Com:  0.125D-03-0.294D-03-0.948D-03-0.149D-02-0.737D-03 0.117D-01
 Coeff-Com:  0.219D-01-0.161D-01-0.106D+00-0.791D-01 0.317D+00 0.855D+00
 Coeff:      0.125D-03-0.294D-03-0.948D-03-0.149D-02-0.737D-03 0.117D-01
 Coeff:      0.219D-01-0.161D-01-0.106D+00-0.791D-01 0.317D+00 0.855D+00
 Gap=     0.130 Goal=   None    Shift=    0.000
 Gap=     0.152 Goal=   None    Shift=    0.000
 RMSDP=4.89D-07 MaxDP=1.05D-04 DE=-1.79D-07 OVMax= 3.52D-04

 Cycle  13  Pass 1  IDiag  1:
 RMSU=  2.04D-07    CP:  9.78D-01  1.41D+00  9.79D-01  9.02D-01  1.38D+00
                    CP:  1.92D+00  2.60D+00  2.15D+00  1.65D+00  1.53D+00
                    CP:  1.62D+00  1.35D+00
 E= -2386.67242527816     Delta-E=       -0.000000072584 Rises=F Damp=F
 DIIS: error= 1.30D-06 at cycle  13 NSaved=  13.
 NSaved=13 IEnMin=13 EnMin= -2386.67242527816     IErMin=13 ErrMin= 1.30D-06
 ErrMax= 1.30D-06  0.00D+00 EMaxC= 1.00D-01 BMatC= 1.88D-08 BMatP= 6.74D-08
 IDIUse=1 WtCom= 1.00D+00 WtEn= 0.00D+00
 Coeff-Com:  0.745D-04-0.161D-03-0.648D-03-0.117D-02-0.188D-02 0.413D-02
 Coeff-Com:  0.149D-01 0.351D-02-0.452D-01-0.105D+00-0.352D-01 0.378D+00
 Coeff-Com:  0.789D+00
 Coeff:      0.745D-04-0.161D-03-0.648D-03-0.117D-02-0.188D-02 0.413D-02
 Coeff:      0.149D-01 0.351D-02-0.452D-01-0.105D+00-0.352D-01 0.378D+00
 Coeff:      0.789D+00
 Gap=     0.130 Goal=   None    Shift=    0.000
 Gap=     0.152 Goal=   None    Shift=    0.000
 RMSDP=2.57D-07 MaxDP=5.43D-05 DE=-7.26D-08 OVMax= 1.86D-04

 Cycle  14  Pass 1  IDiag  1:
 RMSU=  9.96D-08    CP:  9.78D-01  1.41D+00  9.79D-01  9.02D-01  1.38D+00
                    CP:  1.92D+00  2.60D+00  2.16D+00  1.67D+00  1.58D+00
                    CP:  1.77D+00  1.66D+00  1.30D+00
 E= -2386.67242529769     Delta-E=       -0.000000019533 Rises=F Damp=F
 DIIS: error= 6.27D-07 at cycle  14 NSaved=  14.
 NSaved=14 IEnMin=14 EnMin= -2386.67242529769     IErMin=14 ErrMin= 6.27D-07
 ErrMax= 6.27D-07  0.00D+00 EMaxC= 1.00D-01 BMatC= 4.96D-09 BMatP= 1.88D-08
 IDIUse=1 WtCom= 1.00D+00 WtEn= 0.00D+00
 Coeff-Com: -0.108D-04 0.296D-04 0.457D-04-0.317D-05-0.501D-03-0.185D-02
 Coeff-Com: -0.130D-02 0.609D-02 0.167D-01-0.209D-01-0.124D+00-0.110D+00
 Coeff-Com:  0.352D+00 0.884D+00
 Coeff:     -0.108D-04 0.296D-04 0.457D-04-0.317D-05-0.501D-03-0.185D-02
 Coeff:     -0.130D-02 0.609D-02 0.167D-01-0.209D-01-0.124D+00-0.110D+00
 Coeff:      0.352D+00 0.884D+00
 Gap=     0.130 Goal=   None    Shift=    0.000
 Gap=     0.152 Goal=   None    Shift=    0.000
 RMSDP=1.66D-07 MaxDP=3.52D-05 DE=-1.95D-08 OVMax= 1.21D-04

 Cycle  15  Pass 1  IDiag  1:
 RMSU=  4.97D-08    CP:  9.78D-01  1.41D+00  9.79D-01  9.02D-01  1.38D+00
                    CP:  1.92D+00  2.60D+00  2.16D+00  1.68D+00  1.61D+00
                    CP:  1.87D+00  1.83D+00  1.68D+00  1.40D+00
 E= -2386.67242530447     Delta-E=       -0.000000006778 Rises=F Damp=F
 DIIS: error= 3.52D-07 at cycle  15 NSaved=  15.
 NSaved=15 IEnMin=15 EnMin= -2386.67242530447     IErMin=15 ErrMin= 3.52D-07
 ErrMax= 3.52D-07  0.00D+00 EMaxC= 1.00D-01 BMatC= 9.40D-10 BMatP= 4.96D-09
 IDIUse=1 WtCom= 1.00D+00 WtEn= 0.00D+00
 Coeff-Com: -0.178D-04 0.404D-04 0.144D-03 0.235D-03 0.177D-03-0.142D-02
 Coeff-Com: -0.353D-02 0.808D-03 0.152D-01 0.145D-01-0.298D-01-0.111D+00
 Coeff-Com: -0.621D-01 0.278D+00 0.899D+00
 Coeff:     -0.178D-04 0.404D-04 0.144D-03 0.235D-03 0.177D-03-0.142D-02
 Coeff:     -0.353D-02 0.808D-03 0.152D-01 0.145D-01-0.298D-01-0.111D+00
 Coeff:     -0.621D-01 0.278D+00 0.899D+00
 Gap=     0.130 Goal=   None    Shift=    0.000
 Gap=     0.152 Goal=   None    Shift=    0.000
 RMSDP=7.08D-08 MaxDP=1.24D-05 DE=-6.78D-09 OVMax= 4.57D-05

 Cycle  16  Pass 1  IDiag  1:
 RMSU=  2.25D-08    CP:  9.78D-01  1.41D+00  9.79D-01  9.02D-01  1.38D+00
                    CP:  1.92D+00  2.60D+00  2.16D+00  1.68D+00  1.62D+00
                    CP:  1.90D+00  1.89D+00  1.83D+00  1.68D+00  1.37D+00
 E= -2386.67242530565     Delta-E=       -0.000000001179 Rises=F Damp=F
 DIIS: error= 2.31D-07 at cycle  16 NSaved=  16.
 NSaved=16 IEnMin=16 EnMin= -2386.67242530565     IErMin=16 ErrMin= 2.31D-07
 ErrMax= 2.31D-07  0.00D+00 EMaxC= 1.00D-01 BMatC= 3.04D-10 BMatP= 9.40D-10
 IDIUse=1 WtCom= 1.00D+00 WtEn= 0.00D+00
 Coeff-Com: -0.496D-05 0.105D-04 0.534D-04 0.106D-03 0.190D-03-0.186D-03
 Coeff-Com: -0.128D-02-0.123D-02 0.306D-02 0.115D-01 0.168D-01-0.250D-01
 Coeff-Com: -0.116D+00-0.815D-01 0.427D+00 0.767D+00
 Coeff:     -0.496D-05 0.105D-04 0.534D-04 0.106D-03 0.190D-03-0.186D-03
 Coeff:     -0.128D-02-0.123D-02 0.306D-02 0.115D-01 0.168D-01-0.250D-01
 Coeff:     -0.116D+00-0.815D-01 0.427D+00 0.767D+00
 Gap=     0.130 Goal=   None    Shift=    0.000
 Gap=     0.152 Goal=   None    Shift=    0.000
 RMSDP=2.82D-08 MaxDP=6.59D-06 DE=-1.18D-09 OVMax= 1.63D-05

 Cycle  17  Pass 1  IDiag  1:
 RMSU=  1.04D-08    CP:  9.78D-01  1.41D+00  9.79D-01  9.02D-01  1.38D+00
                    CP:  1.92D+00  2.60D+00  2.16D+00  1.68D+00  1.62D+00
                    CP:  1.90D+00  1.90D+00  1.88D+00  1.78D+00  1.58D+00
                    CP:  1.37D+00
 E= -2386.67242530565     Delta-E=        0.000000000001 Rises=F Damp=F
 DIIS: error= 9.82D-08 at cycle  17 NSaved=  17.
 NSaved=17 IEnMin=16 EnMin= -2386.67242530565     IErMin=17 ErrMin= 9.82D-08
 ErrMax= 9.82D-08  0.00D+00 EMaxC= 1.00D-01 BMatC= 7.19D-11 BMatP= 3.04D-10
 IDIUse=1 WtCom= 1.00D+00 WtEn= 0.00D+00
 Coeff-Com:  0.214D-05-0.507D-05-0.106D-04-0.911D-05 0.394D-04 0.234D-03
 Coeff-Com:  0.253D-03-0.705D-03-0.211D-02 0.142D-02 0.137D-01 0.149D-01
 Coeff-Com: -0.355D-01-0.949D-01-0.224D-01 0.332D+00 0.793D+00
 Coeff:      0.214D-05-0.507D-05-0.106D-04-0.911D-05 0.394D-04 0.234D-03
 Coeff:      0.253D-03-0.705D-03-0.211D-02 0.142D-02 0.137D-01 0.149D-01
 Coeff:     -0.355D-01-0.949D-01-0.224D-01 0.332D+00 0.793D+00
 Gap=     0.130 Goal=   None    Shift=    0.000
 Gap=     0.152 Goal=   None    Shift=    0.000
 RMSDP=1.22D-08 MaxDP=3.01D-06 DE= 9.09D-13 OVMax= 7.77D-06

 Cycle  18  Pass 1  IDiag  1:
 RMSU=  5.73D-09    CP:  9.78D-01  1.41D+00  9.79D-01  9.02D-01  1.38D+00
                    CP:  1.92D+00  2.60D+00  2.16D+00  1.69D+00  1.62D+00
                    CP:  1.91D+00  1.91D+00  1.89D+00  1.81D+00  1.68D+00
                    CP:  1.62D+00  1.40D+00
 E= -2386.67242530586     Delta-E=       -0.000000000210 Rises=F Damp=F
 DIIS: error= 5.89D-08 at cycle  18 NSaved=  18.
 NSaved=18 IEnMin=18 EnMin= -2386.67242530586     IErMin=18 ErrMin= 5.89D-08
 ErrMax= 5.89D-08  0.00D+00 EMaxC= 1.00D-01 BMatC= 2.49D-11 BMatP= 7.19D-11
 IDIUse=1 WtCom= 1.00D+00 WtEn= 0.00D+00
 Coeff-Com:  0.227D-05-0.507D-05-0.187D-04-0.311D-04-0.287D-04 0.156D-03
 Coeff-Com:  0.439D-03 0.491D-05-0.181D-02-0.226D-02 0.264D-02 0.138D-01
 Coeff-Com:  0.120D-01-0.258D-01-0.126D+00-0.349D-01 0.402D+00 0.760D+00
 Coeff:      0.227D-05-0.507D-05-0.187D-04-0.311D-04-0.287D-04 0.156D-03
 Coeff:      0.439D-03 0.491D-05-0.181D-02-0.226D-02 0.264D-02 0.138D-01
 Coeff:      0.120D-01-0.258D-01-0.126D+00-0.349D-01 0.402D+00 0.760D+00
 Gap=     0.130 Goal=   None    Shift=    0.000
 Gap=     0.152 Goal=   None    Shift=    0.000
 RMSDP=6.43D-09 MaxDP=9.93D-07 DE=-2.10D-10 OVMax= 4.22D-06

 Error on total polarization charges =  0.02990
 SCF Done:  E(UM062X) =  -2386.67242531     A.U. after   18 cycles
            NFock= 18  Conv=0.64D-08     -V/T= 2.1883
 <Sx>= 0.0000 <Sy>= 0.0000 <Sz>= 0.5000 <S**2>= 0.7954 S= 0.5225
 <L.S>= 0.000000000000E+00
 KE= 2.008522401982D+03 PE=-1.651824481352D+04 EE= 6.595993231235D+03
 Annihilation of the first spin contaminant:
 S**2 before annihilation     0.7954,   after     0.7514
 Leave Link  502 at Thu Nov  6 04:19:51 2025, MaxMem= 30870077440 cpu:          103618.6 elap:            1638.7
 (Enter /public/software/gauss/g16/l601.exe)
 Copying SCF densities to generalized density rwf, IOpCl= 1 IROHF=0.

 **********************************************************************

            Population analysis using the SCF density.

 **********************************************************************

 Orbital symmetries:
 Alpha Orbitals:
       Occupied  (A) (A) (A) (A) (A) (A) (A) (A) (A) (A) (A) (A)
                 (A) (A) (A) (A) (A) (A) (A) (A) (A) (A) (A) (A)
                 (A) (A) (A) (A) (A) (A) (A) (A) (A) (A) (A) (A)
                 (A) (A) (A) (A) (A) (A) (A) (A) (A) (A) (A) (A)
                 (A) (A) (A) (A) (A) (A) (A) (A) (A) (A) (A) (A)
                 (A) (A) (A) (A) (A) (A) (A) (A) (A) (A) (A) (A)
                 (A) (A) (A) (A) (A) (A) (A) (A) (A) (A) (A) (A)
                 (A) (A) (A) (A) (A) (A) (A) (A) (A) (A) (A) (A)
                 (A) (A) (A) (A) (A) (A) (A) (A) (A) (A) (A) (A)
                 (A) (A) (A) (A) (A) (A) (A) (A) (A) (A) (A) (A)
                 (A) (A) (A) (A) (A) (A) (A) (A) (A) (A) (A) (A)
                 (A) (A) (A) (A) (A) (A) (A) (A) (A) (A) (A) (A)
                 (A) (A) (A) (A) (A) (A) (A) (A) (A) (A) (A) (A)
                 (A) (A) (A) (A) (A) (A) (A) (A) (A) (A) (A) (A)
       Virtual   (A) (A) (A) (A) (A) (A) (A) (A) (A) (A) (A) (A)
                 (A) (A) (A) (A) (A) (A) (A) (A) (A) (A) (A) (A)
                 (A) (A) (A) (A) (A) (A) (A) (A) (A) (A) (A) (A)
                 (A) (A) (A) (A) (A) (A) (A) (A) (A) (A) (A) (A)
                 (A) (A) (A) (A) (A) (A) (A) (A) (A) (A) (A) (A)
                 (A) (A) (A) (A) (A) (A) (A) (A) (A) (A) (A) (A)
                 (A) (A) (A) (A) (A) (A) (A) (A) (A) (A) (A) (A)
                 (A) (A) (A) (A) (A) (A) (A) (A) (A) (A) (A) (A)
                 (A) (A) (A) (A) (A) (A) (A) (A) (A) (A) (A) (A)
                 (A) (A) (A) (A) (A) (A) (A) (A) (A) (A) (A) (A)
                 (A) (A) (A) (A) (A) (A) (A) (A) (A) (A) (A) (A)
                 (A) (A) (A) (A) (A) (A) (A) (A) (A) (A) (A) (A)
                 (A) (A) (A) (A) (A) (A) (A) (A) (A) (A) (A) (A)
                 (A) (A) (A) (A) (A) (A) (A) (A) (A) (A) (A) (A)
                 (A) (A) (A) (A) (A) (A) (A) (A) (A) (A) (A) (A)
                 (A) (A) (A) (A) (A) (A) (A) (A) (A) (A) (A) (A)
                 (A) (A) (A) (A) (A) (A) (A) (A) (A) (A) (A) (A)
                 (A) (A) (A) (A) (A) (A) (A) (A) (A) (A) (A) (A)
                 (A) (A) (A) (A) (A) (A) (A) (A) (A) (A) (A) (A)
                 (A) (A) (A) (A) (A) (A) (A) (A) (A) (A) (A) (A)
                 (A) (A) (A) (A) (A) (A) (A) (A) (A) (A) (A) (A)
                 (A) (A) (A) (A) (A) (A) (A) (A) (A) (A) (A) (A)
                 (A) (A) (A) (A) (A) (A) (A) (A) (A) (A) (A) (A)
                 (A) (A) (A) (A) (A) (A) (A) (A) (A) (A) (A) (A)
                 (A) (A) (A) (A) (A) (A) (A) (A) (A) (A) (A) (A)
                 (A) (A) (A) (A) (A) (A) (A) (A) (A) (A) (A) (A)
                 (A) (A) (A) (A) (A) (A) (A) (A) (A) (A) (A) (A)
                 (A) (A) (A) (A) (A) (A) (A) (A) (A) (A) (A) (A)
                 (A) (A) (A) (A) (A) (A) (A) (A) (A) (A) (A) (A)
                 (A) (A) (A) (A) (A) (A) (A) (A) (A) (A) (A) (A)
                 (A) (A) (A) (A) (A) (A) (A) (A) (A) (A) (A) (A)
                 (A) (A) (A) (A) (A) (A) (A) (A) (A) (A) (A) (A)
                 (A) (A) (A) (A) (A) (A) (A) (A) (A) (A) (A) (A)
                 (A) (A) (A) (A) (A) (A) (A) (A) (A) (A) (A) (A)
                 (A) (A) (A) (A) (A) (A) (A) (A) (A) (A) (A) (A)
                 (A) (A) (A) (A) (A) (A) (A) (A) (A) (A) (A) (A)
                 (A) (A) (A) (A) (A) (A) (A) (A) (A) (A) (A) (A)
                 (A) (A) (A) (A) (A) (A) (A) (A) (A) (A) (A) (A)
                 (A) (A) (A) (A) (A) (A) (A) (A) (A) (A) (A) (A)
                 (A) (A) (A) (A) (A) (A) (A) (A) (A) (A) (A) (A)
                 (A) (A) (A) (A) (A) (A) (A) (A) (A) (A) (A) (A)
                 (A) (A) (A) (A) (A) (A) (A) (A) (A) (A) (A) (A)
                 (A) (A) (A) (A) (A) (A) (A) (A) (A) (A) (A) (A)
                 (A) (A) (A) (A) (A) (A) (A) (A) (A) (A) (A) (A)
                 (A) (A) (A) (A) (A) (A) (A) (A) (A) (A) (A) (A)
                 (A) (A) (A) (A) (A) (A) (A) (A) (A) (A) (A) (A)
                 (A) (A) (A) (A) (A) (A) (A) (A) (A) (A) (A) (A)
                 (A) (A) (A) (A) (A) (A) (A) (A) (A) (A) (A) (A)
                 (A) (A) (A) (A) (A) (A) (A) (A) (A) (A) (A) (A)
                 (A) (A) (A) (A) (A) (A) (A) (A) (A) (A) (A) (A)
                 (A) (A) (A) (A) (A) (A) (A) (A) (A) (A) (A) (A)
                 (A) (A) (A) (A) (A) (A) (A) (A) (A) (A) (A) (A)
                 (A) (A) (A) (A) (A) (A) (A) (A) (A) (A) (A) (A)
                 (A) (A) (A) (A) (A) (A) (A) (A) (A) (A) (A) (A)
                 (A) (A) (A) (A) (A) (A) (A) (A) (A) (A) (A) (A)
                 (A) (A) (A) (A) (A) (A) (A) (A) (A) (A) (A) (A)
                 (A) (A) (A) (A) (A) (A) (A) (A) (A) (A) (A) (A)
                 (A) (A) (A) (A) (A) (A) (A) (A) (A) (A) (A) (A)
                 (A) (A) (A) (A) (A) (A) (A) (A) (A) (A) (A) (A)
                 (A) (A) (A) (A) (A) (A) (A) (A) (A) (A) (A) (A)
                 (A) (A) (A) (A) (A) (A) (A) (A) (A) (A) (A) (A)
                 (A) (A) (A) (A) (A) (A) (A) (A) (A) (A) (A) (A)
                 (A) (A) (A) (A) (A) (A) (A) (A) (A) (A) (A) (A)
                 (A) (A) (A) (A) (A) (A) (A) (A) (A) (A) (A) (A)
                 (A) (A) (A) (A) (A) (A) (A) (A) (A) (A) (A) (A)
                 (A) (A) (A) (A) (A) (A) (A) (A) (A) (A) (A) (A)
                 (A) (A) (A) (A) (A) (A) (A) (A) (A) (A) (A) (A)
                 (A) (A) (A) (A) (A) (A) (A) (A) (A) (A) (A) (A)
                 (A) (A) (A) (A) (A) (A) (A) (A) (A) (A) (A) (A)
                 (A) (A) (A) (A) (A) (A) (A) (A) (A) (A) (A) (A)
                 (A) (A) (A) (A) (A) (A) (A) (A) (A) (A) (A) (A)
                 (A) (A) (A) (A) (A) (A) (A) (A) (A) (A) (A) (A)
                 (A) (A) (A) (A) (A) (A) (A) (A) (A) (A) (A) (A)
                 (A) (A) (A) (A) (A) (A) (A) (A) (A) (A) (A) (A)
                 (A) (A) (A) (A) (A) (A) (A) (A) (A) (A) (A) (A)
                 (A) (A) (A) (A) (A) (A) (A) (A) (A) (A) (A) (A)
                 (A) (A) (A) (A) (A) (A) (A) (A) (A) (A) (A) (A)
                 (A) (A) (A) (A) (A) (A) (A) (A) (A) (A) (A) (A)
                 (A) (A) (A) (A) (A) (A) (A) (A) (A) (A) (A) (A)
                 (A) (A) (A) (A) (A) (A) (A) (A) (A) (A) (A) (A)
                 (A) (A) (A) (A) (A) (A) (A) (A) (A) (A) (A) (A)
                 (A) (A) (A) (A) (A) (A) (A) (A) (A) (A) (A) (A)
                 (A) (A) (A) (A) (A) (A) (A) (A) (A) (A) (A) (A)
                 (A) (A) (A) (A) (A) (A) (A) (A) (A) (A) (A) (A)
                 (A) (A) (A) (A) (A) (A) (A) (A) (A) (A) (A) (A)
                 (A) (A) (A) (A) (A) (A) (A) (A) (A) (A) (A) (A)
                 (A) (A) (A) (A) (A) (A) (A) (A) (A) (A) (A) (A)
                 (A) (A) (A) (A) (A) (A) (A) (A) (A) (A) (A) (A)
                 (A) (A) (A) (A) (A) (A) (A) (A) (A) (A) (A) (A)
                 (A) (A) (A) (A) (A) (A) (A) (A) (A) (A) (A) (A)
                 (A) (A) (A) (A) (A) (A) (A) (A) (A) (A) (A) (A)
                 (A) (A) (A) (A) (A) (A) (A) (A) (A) (A) (A) (A)
                 (A) (A) (A) (A) (A) (A) (A) (A) (A) (A) (A) (A)
                 (A) (A) (A) (A) (A) (A) (A) (A) (A) (A) (A) (A)
                 (A) (A) (A) (A) (A) (A) (A) (A) (A) (A) (A) (A)
                 (A) (A) (A) (A) (A) (A) (A) (A) (A) (A) (A) (A)
                 (A) (A) (A) (A) (A) (A) (A) (A) (A) (A) (A) (A)
                 (A) (A) (A) (A) (A) (A) (A) (A) (A) (A) (A) (A)
                 (A) (A) (A) (A) (A) (A) (A) (A) (A) (A) (A) (A)
                 (A) (A) (A) (A) (A) (A) (A) (A) (A) (A) (A) (A)
                 (A) (A) (A) (A) (A) (A) (A) (A) (A) (A) (A) (A)
                 (A) (A) (A) (A) (A) (A) (A) (A) (A) (A) (A) (A)
                 (A) (A) (A) (A) (A) (A) (A) (A) (A) (A) (A) (A)
                 (A) (A) (A) (A) (A) (A) (A) (A) (A) (A) (A) (A)
                 (A) (A) (A) (A) (A) (A) (A) (A) (A) (A) (A) (A)
                 (A) (A) (A) (A) (A) (A) (A) (A) (A) (A) (A) (A)
                 (A) (A) (A) (A) (A) (A) (A) (A) (A) (A) (A) (A)
                 (A) (A) (A) (A) (A) (A) (A) (A) (A) (A) (A) (A)
                 (A) (A) (A) (A) (A) (A) (A) (A) (A) (A) (A) (A)
                 (A) (A) (A) (A) (A) (A) (A) (A) (A) (A) (A) (A)
                 (A) (A) (A) (A) (A) (A) (A) (A) (A) (A) (A) (A)
                 (A) (A) (A) (A) (A) (A) (A) (A) (A) (A) (A) (A)
                 (A) (A) (A) (A) (A) (A) (A) (A) (A) (A) (A) (A)
                 (A) (A) (A) (A) (A) (A) (A) (A) (A) (A) (A) (A)
                 (A) (A) (A) (A) (A) (A) (A) (A) (A) (A) (A) (A)
                 (A) (A) (A) (A) (A) (A) (A) (A) (A) (A) (A) (A)
                 (A) (A) (A) (A) (A) (A) (A) (A) (A) (A) (A) (A)
                 (A) (A) (A) (A) (A) (A) (A) (A) (A) (A) (A) (A)
                 (A) (A) (A) (A) (A) (A) (A) (A) (A) (A) (A) (A)
                 (A) (A) (A) (A) (A) (A) (A) (A) (A) (A) (A) (A)
                 (A) (A) (A) (A) (A) (A) (A) (A) (A) (A) (A) (A)
                 (A) (A) (A) (A) (A) (A) (A) (A) (A) (A) (A) (A)
                 (A) (A) (A) (A) (A) (A) (A) (A) (A) (A) (A) (A)
                 (A) (A) (A) (A) (A) (A) (A) (A) (A) (A) (A) (A)
                 (A) (A) (A) (A) (A) (A) (A) (A) (A) (A) (A) (A)
                 (A) (A) (A) (A) (A) (A) (A) (A) (A) (A) (A) (A)
                 (A) (A) (A) (A) (A) (A) (A) (A) (A) (A) (A) (A)
                 (A) (A) (A) (A) (A) (A) (A) (A) (A) (A) (A) (A)
                 (A) (A) (A) (A) (A) (A) (A) (A) (A) (A) (A) (A)
                 (A) (A) (A) (A) (A) (A) (A) (A)
 Beta  Orbitals:
       Occupied  (A) (A) (A) (A) (A) (A) (A) (A) (A) (A) (A) (A)
                 (A) (A) (A) (A) (A) (A) (A) (A) (A) (A) (A) (A)
                 (A) (A) (A) (A) (A) (A) (A) (A) (A) (A) (A) (A)
                 (A) (A) (A) (A) (A) (A) (A) (A) (A) (A) (A) (A)
                 (A) (A) (A) (A) (A) (A) (A) (A) (A) (A) (A) (A)
                 (A) (A) (A) (A) (A) (A) (A) (A) (A) (A) (A) (A)
                 (A) (A) (A) (A) (A) (A) (A) (A) (A) (A) (A) (A)
                 (A) (A) (A) (A) (A) (A) (A) (A) (A) (A) (A) (A)
                 (A) (A) (A) (A) (A) (A) (A) (A) (A) (A) (A) (A)
                 (A) (A) (A) (A) (A) (A) (A) (A) (A) (A) (A) (A)
                 (A) (A) (A) (A) (A) (A) (A) (A) (A) (A) (A) (A)
                 (A) (A) (A) (A) (A) (A) (A) (A) (A) (A) (A) (A)
                 (A) (A) (A) (A) (A) (A) (A) (A) (A) (A) (A) (A)
                 (A) (A) (A) (A) (A) (A) (A) (A) (A) (A) (A)
       Virtual   (A) (A) (A) (A) (A) (A) (A) (A) (A) (A) (A) (A)
                 (A) (A) (A) (A) (A) (A) (A) (A) (A) (A) (A) (A)
                 (A) (A) (A) (A) (A) (A) (A) (A) (A) (A) (A) (A)
                 (A) (A) (A) (A) (A) (A) (A) (A) (A) (A) (A) (A)
                 (A) (A) (A) (A) (A) (A) (A) (A) (A) (A) (A) (A)
                 (A) (A) (A) (A) (A) (A) (A) (A) (A) (A) (A) (A)
                 (A) (A) (A) (A) (A) (A) (A) (A) (A) (A) (A) (A)
                 (A) (A) (A) (A) (A) (A) (A) (A) (A) (A) (A) (A)
                 (A) (A) (A) (A) (A) (A) (A) (A) (A) (A) (A) (A)
                 (A) (A) (A) (A) (A) (A) (A) (A) (A) (A) (A) (A)
                 (A) (A) (A) (A) (A) (A) (A) (A) (A) (A) (A) (A)
                 (A) (A) (A) (A) (A) (A) (A) (A) (A) (A) (A) (A)
                 (A) (A) (A) (A) (A) (A) (A) (A) (A) (A) (A) (A)
                 (A) (A) (A) (A) (A) (A) (A) (A) (A) (A) (A) (A)
                 (A) (A) (A) (A) (A) (A) (A) (A) (A) (A) (A) (A)
                 (A) (A) (A) (A) (A) (A) (A) (A) (A) (A) (A) (A)
                 (A) (A) (A) (A) (A) (A) (A) (A) (A) (A) (A) (A)
                 (A) (A) (A) (A) (A) (A) (A) (A) (A) (A) (A) (A)
                 (A) (A) (A) (A) (A) (A) (A) (A) (A) (A) (A) (A)
                 (A) (A) (A) (A) (A) (A) (A) (A) (A) (A) (A) (A)
                 (A) (A) (A) (A) (A) (A) (A) (A) (A) (A) (A) (A)
                 (A) (A) (A) (A) (A) (A) (A) (A) (A) (A) (A) (A)
                 (A) (A) (A) (A) (A) (A) (A) (A) (A) (A) (A) (A)
                 (A) (A) (A) (A) (A) (A) (A) (A) (A) (A) (A) (A)
                 (A) (A) (A) (A) (A) (A) (A) (A) (A) (A) (A) (A)
                 (A) (A) (A) (A) (A) (A) (A) (A) (A) (A) (A) (A)
                 (A) (A) (A) (A) (A) (A) (A) (A) (A) (A) (A) (A)
                 (A) (A) (A) (A) (A) (A) (A) (A) (A) (A) (A) (A)
                 (A) (A) (A) (A) (A) (A) (A) (A) (A) (A) (A) (A)
                 (A) (A) (A) (A) (A) (A) (A) (A) (A) (A) (A) (A)
                 (A) (A) (A) (A) (A) (A) (A) (A) (A) (A) (A) (A)
                 (A) (A) (A) (A) (A) (A) (A) (A) (A) (A) (A) (A)
                 (A) (A) (A) (A) (A) (A) (A) (A) (A) (A) (A) (A)
                 (A) (A) (A) (A) (A) (A) (A) (A) (A) (A) (A) (A)
                 (A) (A) (A) (A) (A) (A) (A) (A) (A) (A) (A) (A)
                 (A) (A) (A) (A) (A) (A) (A) (A) (A) (A) (A) (A)
                 (A) (A) (A) (A) (A) (A) (A) (A) (A) (A) (A) (A)
                 (A) (A) (A) (A) (A) (A) (A) (A) (A) (A) (A) (A)
                 (A) (A) (A) (A) (A) (A) (A) (A) (A) (A) (A) (A)
                 (A) (A) (A) (A) (A) (A) (A) (A) (A) (A) (A) (A)
                 (A) (A) (A) (A) (A) (A) (A) (A) (A) (A) (A) (A)
                 (A) (A) (A) (A) (A) (A) (A) (A) (A) (A) (A) (A)
                 (A) (A) (A) (A) (A) (A) (A) (A) (A) (A) (A) (A)
                 (A) (A) (A) (A) (A) (A) (A) (A) (A) (A) (A) (A)
                 (A) (A) (A) (A) (A) (A) (A) (A) (A) (A) (A) (A)
                 (A) (A) (A) (A) (A) (A) (A) (A) (A) (A) (A) (A)
                 (A) (A) (A) (A) (A) (A) (A) (A) (A) (A) (A) (A)
                 (A) (A) (A) (A) (A) (A) (A) (A) (A) (A) (A) (A)
                 (A) (A) (A) (A) (A) (A) (A) (A) (A) (A) (A) (A)
                 (A) (A) (A) (A) (A) (A) (A) (A) (A) (A) (A) (A)
                 (A) (A) (A) (A) (A) (A) (A) (A) (A) (A) (A) (A)
                 (A) (A) (A) (A) (A) (A) (A) (A) (A) (A) (A) (A)
                 (A) (A) (A) (A) (A) (A) (A) (A) (A) (A) (A) (A)
                 (A) (A) (A) (A) (A) (A) (A) (A) (A) (A) (A) (A)
                 (A) (A) (A) (A) (A) (A) (A) (A) (A) (A) (A) (A)
                 (A) (A) (A) (A) (A) (A) (A) (A) (A) (A) (A) (A)
                 (A) (A) (A) (A) (A) (A) (A) (A) (A) (A) (A) (A)
                 (A) (A) (A) (A) (A) (A) (A) (A) (A) (A) (A) (A)
                 (A) (A) (A) (A) (A) (A) (A) (A) (A) (A) (A) (A)
                 (A) (A) (A) (A) (A) (A) (A) (A) (A) (A) (A) (A)
                 (A) (A) (A) (A) (A) (A) (A) (A) (A) (A) (A) (A)
                 (A) (A) (A) (A) (A) (A) (A) (A) (A) (A) (A) (A)
                 (A) (A) (A) (A) (A) (A) (A) (A) (A) (A) (A) (A)
                 (A) (A) (A) (A) (A) (A) (A) (A) (A) (A) (A) (A)
                 (A) (A) (A) (A) (A) (A) (A) (A) (A) (A) (A) (A)
                 (A) (A) (A) (A) (A) (A) (A) (A) (A) (A) (A) (A)
                 (A) (A) (A) (A) (A) (A) (A) (A) (A) (A) (A) (A)
                 (A) (A) (A) (A) (A) (A) (A) (A) (A) (A) (A) (A)
                 (A) (A) (A) (A) (A) (A) (A) (A) (A) (A) (A) (A)
                 (A) (A) (A) (A) (A) (A) (A) (A) (A) (A) (A) (A)
                 (A) (A) (A) (A) (A) (A) (A) (A) (A) (A) (A) (A)
                 (A) (A) (A) (A) (A) (A) (A) (A) (A) (A) (A) (A)
                 (A) (A) (A) (A) (A) (A) (A) (A) (A) (A) (A) (A)
                 (A) (A) (A) (A) (A) (A) (A) (A) (A) (A) (A) (A)
                 (A) (A) (A) (A) (A) (A) (A) (A) (A) (A) (A) (A)
                 (A) (A) (A) (A) (A) (A) (A) (A) (A) (A) (A) (A)
                 (A) (A) (A) (A) (A) (A) (A) (A) (A) (A) (A) (A)
                 (A) (A) (A) (A) (A) (A) (A) (A) (A) (A) (A) (A)
                 (A) (A) (A) (A) (A) (A) (A) (A) (A) (A) (A) (A)
                 (A) (A) (A) (A) (A) (A) (A) (A) (A) (A) (A) (A)
                 (A) (A) (A) (A) (A) (A) (A) (A) (A) (A) (A) (A)
                 (A) (A) (A) (A) (A) (A) (A) (A) (A) (A) (A) (A)
                 (A) (A) (A) (A) (A) (A) (A) (A) (A) (A) (A) (A)
                 (A) (A) (A) (A) (A) (A) (A) (A) (A) (A) (A) (A)
                 (A) (A) (A) (A) (A) (A) (A) (A) (A) (A) (A) (A)
                 (A) (A) (A) (A) (A) (A) (A) (A) (A) (A) (A) (A)
                 (A) (A) (A) (A) (A) (A) (A) (A) (A) (A) (A) (A)
                 (A) (A) (A) (A) (A) (A) (A) (A) (A) (A) (A) (A)
                 (A) (A) (A) (A) (A) (A) (A) (A) (A) (A) (A) (A)
                 (A) (A) (A) (A) (A) (A) (A) (A) (A) (A) (A) (A)
                 (A) (A) (A) (A) (A) (A) (A) (A) (A) (A) (A) (A)
                 (A) (A) (A) (A) (A) (A) (A) (A) (A) (A) (A) (A)
                 (A) (A) (A) (A) (A) (A) (A) (A) (A) (A) (A) (A)
                 (A) (A) (A) (A) (A) (A) (A) (A) (A) (A) (A) (A)
                 (A) (A) (A) (A) (A) (A) (A) (A) (A) (A) (A) (A)
                 (A) (A) (A) (A) (A) (A) (A) (A) (A) (A) (A) (A)
                 (A) (A) (A) (A) (A) (A) (A) (A) (A) (A) (A) (A)
                 (A) (A) (A) (A) (A) (A) (A) (A) (A) (A) (A) (A)
                 (A) (A) (A) (A) (A) (A) (A) (A) (A) (A) (A) (A)
                 (A) (A) (A) (A) (A) (A) (A) (A) (A) (A) (A) (A)
                 (A) (A) (A) (A) (A) (A) (A) (A) (A) (A) (A) (A)
                 (A) (A) (A) (A) (A) (A) (A) (A) (A) (A) (A) (A)
                 (A) (A) (A) (A) (A) (A) (A) (A) (A) (A) (A) (A)
                 (A) (A) (A) (A) (A) (A) (A) (A) (A) (A) (A) (A)
                 (A) (A) (A) (A) (A) (A) (A) (A) (A) (A) (A) (A)
                 (A) (A) (A) (A) (A) (A) (A) (A) (A) (A) (A) (A)
                 (A) (A) (A) (A) (A) (A) (A) (A) (A) (A) (A) (A)
                 (A) (A) (A) (A) (A) (A) (A) (A) (A) (A) (A) (A)
                 (A) (A) (A) (A) (A) (A) (A) (A) (A) (A) (A) (A)
                 (A) (A) (A) (A) (A) (A) (A) (A) (A) (A) (A) (A)
                 (A) (A) (A) (A) (A) (A) (A) (A) (A) (A) (A) (A)
                 (A) (A) (A) (A) (A) (A) (A) (A) (A) (A) (A) (A)
                 (A) (A) (A) (A) (A) (A) (A) (A) (A) (A) (A) (A)
                 (A) (A) (A) (A) (A) (A) (A) (A) (A) (A) (A) (A)
                 (A) (A) (A) (A) (A) (A) (A) (A) (A) (A) (A) (A)
                 (A) (A) (A) (A) (A) (A) (A) (A) (A) (A) (A) (A)
                 (A) (A) (A) (A) (A) (A) (A) (A) (A) (A) (A) (A)
                 (A) (A) (A) (A) (A) (A) (A) (A) (A) (A) (A) (A)
                 (A) (A) (A) (A) (A) (A) (A) (A) (A) (A) (A) (A)
                 (A) (A) (A) (A) (A) (A) (A) (A) (A) (A) (A) (A)
                 (A) (A) (A) (A) (A) (A) (A) (A) (A) (A) (A) (A)
                 (A) (A) (A) (A) (A) (A) (A) (A) (A) (A) (A) (A)
                 (A) (A) (A) (A) (A) (A) (A) (A) (A) (A) (A) (A)
                 (A) (A) (A) (A) (A) (A) (A) (A) (A) (A) (A) (A)
                 (A) (A) (A) (A) (A) (A) (A) (A) (A) (A) (A) (A)
                 (A) (A) (A) (A) (A) (A) (A) (A) (A) (A) (A) (A)
                 (A) (A) (A) (A) (A) (A) (A) (A) (A) (A) (A) (A)
                 (A) (A) (A) (A) (A) (A) (A) (A) (A) (A) (A) (A)
                 (A) (A) (A) (A) (A) (A) (A) (A) (A) (A) (A) (A)
                 (A) (A) (A) (A) (A) (A) (A) (A) (A)
 The electronic state is 2-A.
 Alpha  occ. eigenvalues --  -25.19429 -25.19331 -14.76912 -14.76746 -14.76666
 Alpha  occ. eigenvalues --  -14.76335 -10.59556 -10.59289 -10.59172 -10.58605
 Alpha  occ. eigenvalues --  -10.58533 -10.58324 -10.58282 -10.58070 -10.57707
 Alpha  occ. eigenvalues --  -10.57685 -10.57530 -10.57165 -10.57057 -10.56992
 Alpha  occ. eigenvalues --  -10.56771 -10.56729 -10.56115 -10.55985 -10.55925
 Alpha  occ. eigenvalues --  -10.55915 -10.55845 -10.55599 -10.55505 -10.55484
 Alpha  occ. eigenvalues --  -10.55458 -10.55385 -10.55124 -10.54856 -10.54820
 Alpha  occ. eigenvalues --  -10.54758 -10.54712 -10.54704 -10.54199 -10.53227
 Alpha  occ. eigenvalues --  -10.53083  -7.11811  -7.10783  -7.10468  -5.10118
 Alpha  occ. eigenvalues --   -5.09802  -5.09094  -5.09088  -5.08786  -5.08769
 Alpha  occ. eigenvalues --   -2.06971  -2.06658  -2.06523  -2.06518  -2.06210
 Alpha  occ. eigenvalues --   -2.06199  -2.05671  -2.05669  -2.05356  -2.05354
 Alpha  occ. eigenvalues --   -1.31200  -1.27976  -1.08938  -1.07043  -1.02679
 Alpha  occ. eigenvalues --   -1.02365  -0.98445  -0.98045  -0.96963  -0.92466
 Alpha  occ. eigenvalues --   -0.91549  -0.90768  -0.90299  -0.89604  -0.87016
 Alpha  occ. eigenvalues --   -0.86462  -0.86234  -0.86066  -0.84566  -0.83034
 Alpha  occ. eigenvalues --   -0.82433  -0.80836  -0.78570  -0.78291  -0.77247
 Alpha  occ. eigenvalues --   -0.76768  -0.73991  -0.72001  -0.71212  -0.70803
 Alpha  occ. eigenvalues --   -0.69207  -0.68530  -0.67872  -0.65983  -0.64774
 Alpha  occ. eigenvalues --   -0.63923  -0.63744  -0.63250  -0.62498  -0.60791
 Alpha  occ. eigenvalues --   -0.59588  -0.58161  -0.57594  -0.57367  -0.57183
 Alpha  occ. eigenvalues --   -0.56385  -0.55836  -0.54753  -0.53656  -0.53270
 Alpha  occ. eigenvalues --   -0.52891  -0.52257  -0.52159  -0.51503  -0.51090
 Alpha  occ. eigenvalues --   -0.50886  -0.50672  -0.50357  -0.50114  -0.49848
 Alpha  occ. eigenvalues --   -0.48876  -0.48808  -0.48621  -0.48401  -0.48267
 Alpha  occ. eigenvalues --   -0.48120  -0.47658  -0.47184  -0.46911  -0.46802
 Alpha  occ. eigenvalues --   -0.46005  -0.45708  -0.45450  -0.45085  -0.44734
 Alpha  occ. eigenvalues --   -0.44414  -0.43565  -0.43436  -0.43299  -0.42969
 Alpha  occ. eigenvalues --   -0.42810  -0.42639  -0.41995  -0.41686  -0.41383
 Alpha  occ. eigenvalues --   -0.40899  -0.40410  -0.40275  -0.40157  -0.39805
 Alpha  occ. eigenvalues --   -0.39548  -0.38708  -0.37084  -0.36420  -0.35592
 Alpha  occ. eigenvalues --   -0.33804  -0.32922  -0.32913  -0.32317  -0.31870
 Alpha  occ. eigenvalues --   -0.31362  -0.30833  -0.30704  -0.29363  -0.28715
 Alpha  occ. eigenvalues --   -0.28427  -0.24223  -0.18278
 Alpha virt. eigenvalues --   -0.05297  -0.04311   0.00173   0.00540   0.00873
 Alpha virt. eigenvalues --    0.00978   0.01032   0.01569   0.02534   0.03202
 Alpha virt. eigenvalues --    0.05711   0.06398   0.06503   0.07320   0.07398
 Alpha virt. eigenvalues --    0.07533   0.08164   0.08579   0.08775   0.09119
 Alpha virt. eigenvalues --    0.09491   0.09975   0.10427   0.10550   0.10633
 Alpha virt. eigenvalues --    0.11089   0.11165   0.11487   0.12124   0.12421
 Alpha virt. eigenvalues --    0.12767   0.12853   0.13154   0.13429   0.13703
 Alpha virt. eigenvalues --    0.13899   0.14081   0.14560   0.14647   0.14979
 Alpha virt. eigenvalues --    0.15212   0.15756   0.16018   0.16184   0.16463
 Alpha virt. eigenvalues --    0.16948   0.17073   0.17317   0.17671   0.17790
 Alpha virt. eigenvalues --    0.18011   0.18219   0.18426   0.18581   0.18829
 Alpha virt. eigenvalues --    0.19076   0.19331   0.19460   0.19736   0.20157
 Alpha virt. eigenvalues --    0.20371   0.20633   0.21129   0.21248   0.21573
 Alpha virt. eigenvalues --    0.21828   0.22022   0.22358   0.22502   0.22839
 Alpha virt. eigenvalues --    0.23128   0.23570   0.23734   0.23846   0.24188
 Alpha virt. eigenvalues --    0.24630   0.24833   0.25059   0.25437   0.25674
 Alpha virt. eigenvalues --    0.25708   0.25874   0.25949   0.26371   0.26421
 Alpha virt. eigenvalues --    0.26729   0.26913   0.27308   0.27468   0.27710
 Alpha virt. eigenvalues --    0.27829   0.28175   0.28353   0.28498   0.28826
 Alpha virt. eigenvalues --    0.28965   0.29093   0.29591   0.29881   0.29991
 Alpha virt. eigenvalues --    0.30414   0.30489   0.30889   0.31400   0.31505
 Alpha virt. eigenvalues --    0.31534   0.31719   0.31780   0.32111   0.32251
 Alpha virt. eigenvalues --    0.32480   0.32675   0.32994   0.33171   0.33517
 Alpha virt. eigenvalues --    0.33736   0.33811   0.34259   0.34440   0.34760
 Alpha virt. eigenvalues --    0.35036   0.35310   0.35472   0.35692   0.35981
 Alpha virt. eigenvalues --    0.36375   0.36686   0.36790   0.36860   0.37136
 Alpha virt. eigenvalues --    0.37385   0.37601   0.37679   0.38279   0.38488
 Alpha virt. eigenvalues --    0.38638   0.39020   0.39055   0.39289   0.39470
 Alpha virt. eigenvalues --    0.39815   0.40169   0.40229   0.40562   0.40623
 Alpha virt. eigenvalues --    0.40785   0.40969   0.41158   0.41401   0.41854
 Alpha virt. eigenvalues --    0.42122   0.42312   0.42532   0.42735   0.43035
 Alpha virt. eigenvalues --    0.43106   0.43446   0.43748   0.44016   0.44309
 Alpha virt. eigenvalues --    0.44398   0.44810   0.45232   0.45362   0.45501
 Alpha virt. eigenvalues --    0.45752   0.45880   0.46011   0.46074   0.46236
 Alpha virt. eigenvalues --    0.46676   0.46992   0.47389   0.47541   0.47730
 Alpha virt. eigenvalues --    0.47971   0.48298   0.48436   0.48605   0.48838
 Alpha virt. eigenvalues --    0.49409   0.49759   0.49878   0.49937   0.50372
 Alpha virt. eigenvalues --    0.50536   0.50657   0.50888   0.51029   0.51253
 Alpha virt. eigenvalues --    0.51699   0.51784   0.51896   0.52304   0.52398
 Alpha virt. eigenvalues --    0.52551   0.53020   0.53071   0.53298   0.53392
 Alpha virt. eigenvalues --    0.53728   0.53923   0.54346   0.54459   0.54549
 Alpha virt. eigenvalues --    0.55000   0.55317   0.55546   0.56041   0.56258
 Alpha virt. eigenvalues --    0.56561   0.57003   0.57392   0.57875   0.58096
 Alpha virt. eigenvalues --    0.58225   0.58596   0.58719   0.59227   0.59718
 Alpha virt. eigenvalues --    0.59900   0.60295   0.60612   0.60845   0.61291
 Alpha virt. eigenvalues --    0.61473   0.62016   0.62171   0.62286   0.62930
 Alpha virt. eigenvalues --    0.63197   0.63415   0.63970   0.64050   0.64174
 Alpha virt. eigenvalues --    0.64517   0.64765   0.65039   0.65228   0.65476
 Alpha virt. eigenvalues --    0.65619   0.65722   0.66131   0.66275   0.66781
 Alpha virt. eigenvalues --    0.66854   0.67100   0.67353   0.67436   0.67922
 Alpha virt. eigenvalues --    0.68182   0.68369   0.68698   0.68826   0.69212
 Alpha virt. eigenvalues --    0.69576   0.69837   0.70169   0.70346   0.70520
 Alpha virt. eigenvalues --    0.70727   0.70770   0.71068   0.71256   0.71443
 Alpha virt. eigenvalues --    0.71660   0.72029   0.72574   0.72651   0.73075
 Alpha virt. eigenvalues --    0.73467   0.73526   0.73953   0.74215   0.74655
 Alpha virt. eigenvalues --    0.74961   0.75115   0.75451   0.75573   0.75700
 Alpha virt. eigenvalues --    0.76426   0.76833   0.77089   0.77608   0.77897
 Alpha virt. eigenvalues --    0.78385   0.78771   0.78817   0.79138   0.79419
 Alpha virt. eigenvalues --    0.79637   0.79932   0.80200   0.80607   0.80863
 Alpha virt. eigenvalues --    0.81192   0.81425   0.81600   0.81807   0.82180
 Alpha virt. eigenvalues --    0.82327   0.82627   0.83175   0.83293   0.83398
 Alpha virt. eigenvalues --    0.83742   0.84081   0.84436   0.84619   0.84889
 Alpha virt. eigenvalues --    0.85062   0.85262   0.85481   0.85559   0.85804
 Alpha virt. eigenvalues --    0.86844   0.87009   0.87614   0.87991   0.88257
 Alpha virt. eigenvalues --    0.88853   0.89256   0.89483   0.89855   0.89999
 Alpha virt. eigenvalues --    0.90900   0.91170   0.91480   0.91717   0.91793
 Alpha virt. eigenvalues --    0.92016   0.92363   0.92395   0.92564   0.93108
 Alpha virt. eigenvalues --    0.93281   0.93637   0.93785   0.94049   0.94311
 Alpha virt. eigenvalues --    0.94597   0.94918   0.95519   0.95548   0.95722
 Alpha virt. eigenvalues --    0.96390   0.96526   0.97006   0.97473   0.97558
 Alpha virt. eigenvalues --    0.97926   0.98052   0.98663   0.99069   0.99322
 Alpha virt. eigenvalues --    0.99836   0.99873   1.00338   1.00537   1.00732
 Alpha virt. eigenvalues --    1.01042   1.01135   1.01353   1.01480   1.01891
 Alpha virt. eigenvalues --    1.02037   1.02889   1.03127   1.03362   1.03424
 Alpha virt. eigenvalues --    1.03660   1.04229   1.04369   1.04423   1.04664
 Alpha virt. eigenvalues --    1.05094   1.05563   1.05823   1.06006   1.06473
 Alpha virt. eigenvalues --    1.06601   1.07272   1.07679   1.07821   1.08217
 Alpha virt. eigenvalues --    1.08713   1.08756   1.09169   1.09608   1.09703
 Alpha virt. eigenvalues --    1.10103   1.10667   1.10847   1.11527   1.11781
 Alpha virt. eigenvalues --    1.12220   1.12692   1.12841   1.13091   1.13306
 Alpha virt. eigenvalues --    1.13877   1.13985   1.14308   1.14736   1.14913
 Alpha virt. eigenvalues --    1.15233   1.15534   1.15634   1.16158   1.16598
 Alpha virt. eigenvalues --    1.16710   1.17255   1.17706   1.17884   1.18137
 Alpha virt. eigenvalues --    1.18326   1.18380   1.18853   1.19221   1.19705
 Alpha virt. eigenvalues --    1.20140   1.20269   1.20482   1.20822   1.21232
 Alpha virt. eigenvalues --    1.21592   1.21810   1.21994   1.22430   1.22709
 Alpha virt. eigenvalues --    1.22914   1.23031   1.23270   1.23538   1.23730
 Alpha virt. eigenvalues --    1.24050   1.24369   1.24693   1.25048   1.25207
 Alpha virt. eigenvalues --    1.25498   1.25893   1.26276   1.26788   1.27167
 Alpha virt. eigenvalues --    1.27423   1.27506   1.27988   1.28492   1.28809
 Alpha virt. eigenvalues --    1.29019   1.29247   1.29615   1.29926   1.30291
 Alpha virt. eigenvalues --    1.30637   1.31117   1.31507   1.31736   1.32093
 Alpha virt. eigenvalues --    1.32472   1.32764   1.33131   1.33517   1.33759
 Alpha virt. eigenvalues --    1.34415   1.34544   1.34734   1.35049   1.35211
 Alpha virt. eigenvalues --    1.35470   1.36027   1.36622   1.37128   1.37409
 Alpha virt. eigenvalues --    1.37466   1.37809   1.37971   1.38309   1.38654
 Alpha virt. eigenvalues --    1.38859   1.38961   1.39235   1.39642   1.40390
 Alpha virt. eigenvalues --    1.40550   1.40848   1.41444   1.41546   1.42001
 Alpha virt. eigenvalues --    1.42278   1.42612   1.43102   1.43526   1.43993
 Alpha virt. eigenvalues --    1.44159   1.44482   1.44641   1.45075   1.45266
 Alpha virt. eigenvalues --    1.45567   1.45758   1.45817   1.46049   1.46408
 Alpha virt. eigenvalues --    1.46557   1.46765   1.46901   1.47225   1.47632
 Alpha virt. eigenvalues --    1.47928   1.48521   1.48939   1.49063   1.49787
 Alpha virt. eigenvalues --    1.50069   1.50731   1.51166   1.51294   1.51902
 Alpha virt. eigenvalues --    1.52141   1.52265   1.53050   1.53178   1.53529
 Alpha virt. eigenvalues --    1.53737   1.53936   1.54177   1.54567   1.55033
 Alpha virt. eigenvalues --    1.55525   1.55872   1.56074   1.56546   1.56736
 Alpha virt. eigenvalues --    1.57107   1.57324   1.57498   1.57644   1.57857
 Alpha virt. eigenvalues --    1.58081   1.58607   1.58858   1.58900   1.59283
 Alpha virt. eigenvalues --    1.59425   1.59763   1.60187   1.60290   1.60589
 Alpha virt. eigenvalues --    1.60799   1.61252   1.61728   1.62271   1.62333
 Alpha virt. eigenvalues --    1.62415   1.62740   1.62860   1.63351   1.63887
 Alpha virt. eigenvalues --    1.64486   1.64687   1.64694   1.65449   1.65708
 Alpha virt. eigenvalues --    1.66019   1.66179   1.66580   1.66982   1.67122
 Alpha virt. eigenvalues --    1.67535   1.67725   1.67980   1.68292   1.68381
 Alpha virt. eigenvalues --    1.69094   1.69168   1.69887   1.69952   1.70497
 Alpha virt. eigenvalues --    1.71067   1.71330   1.71642   1.71791   1.72633
 Alpha virt. eigenvalues --    1.72842   1.73880   1.73901   1.74127   1.74657
 Alpha virt. eigenvalues --    1.75469   1.75873   1.76342   1.76832   1.77588
 Alpha virt. eigenvalues --    1.77950   1.78545   1.78629   1.79331   1.79590
 Alpha virt. eigenvalues --    1.80206   1.80758   1.81111   1.81550   1.81745
 Alpha virt. eigenvalues --    1.82490   1.83230   1.83840   1.84129   1.84671
 Alpha virt. eigenvalues --    1.84927   1.85874   1.86298   1.86654   1.86849
[...]
     2 C(13)  Bbb    -0.0815   -10.936    -3.902    -3.648  0.9281 -0.2373  0.2870
              Bcc     0.1648    22.114     7.891     7.376 -0.2405  0.2067  0.9484
 
              Baa    -0.0860   -11.546    -4.120    -3.851 -0.2263  0.1716  0.9588
     3 C(13)  Bbb     0.0409     5.492     1.960     1.832  0.9049 -0.3272  0.2721
              Bcc     0.0451     6.054     2.160     2.020  0.3604  0.9292 -0.0813
 
              Baa    -0.0031    -0.328    -0.117    -0.109 -0.1809  0.2698  0.9458
     4 I(127) Bbb     0.0004     0.040     0.014     0.013  0.3374  0.9203 -0.1981
              Bcc     0.0027     0.288     0.103     0.096  0.9238 -0.2833  0.2575
 
              Baa    -0.0959   -12.873    -4.593    -4.294  0.8748 -0.3956  0.2797
     5 C(13)  Bbb    -0.0929   -12.473    -4.451    -4.161  0.4370  0.8936 -0.1029
              Bcc     0.1889    25.346     9.044     8.455 -0.2092  0.2122  0.9546
 
              Baa    -0.0703    -9.440    -3.368    -3.149 -0.3079  0.2758  0.9105
     6 C(13)  Bbb     0.0279     3.744     1.336     1.249  0.8997 -0.2267  0.3729
              Bcc     0.0424     5.696     2.032     1.900  0.3093  0.9341 -0.1784
 
              Baa    -0.0942   -12.646    -4.512    -4.218 -0.3128  0.8279 -0.4655
     7 C(13)  Bbb    -0.0870   -11.672    -4.165    -3.893  0.8612  0.4540  0.2288
              Bcc     0.1812    24.318     8.677     8.112 -0.4007  0.3293  0.8550
 
              Baa    -0.0279    -3.741    -1.335    -1.248 -0.4142  0.3381  0.8451
     8 C(13)  Bbb     0.0101     1.360     0.485     0.454 -0.5336  0.6619 -0.5264
              Bcc     0.0177     2.381     0.849     0.794  0.7374  0.6690  0.0937
 
              Baa    -0.0238    -3.194    -1.140    -1.065  0.6683 -0.5080  0.5434
     9 C(13)  Bbb    -0.0204    -2.742    -0.978    -0.915  0.6189  0.7850 -0.0273
              Bcc     0.0442     5.936     2.118     1.980 -0.4127  0.3546  0.8390
 
              Baa    -0.0159    -2.140    -0.764    -0.714 -0.4120  0.3524  0.8403
    10 C(13)  Bbb     0.0063     0.843     0.301     0.281 -0.5898  0.5998 -0.5407
              Bcc     0.0097     1.297     0.463     0.433  0.6945  0.7184  0.0393
 
              Baa    -0.0315    -4.227    -1.508    -1.410  0.6545 -0.5253  0.5437
    11 C(13)  Bbb    -0.0288    -3.861    -1.378    -1.288  0.6300  0.7766 -0.0081
              Bcc     0.0603     8.088     2.886     2.698 -0.4180  0.3478  0.8392
 
              Baa    -0.0074    -1.000    -0.357    -0.333 -0.4180  0.3512  0.8379
    12 C(13)  Bbb    -0.0017    -0.230    -0.082    -0.077  0.6602 -0.5162  0.5457
              Bcc     0.0092     1.229     0.439     0.410  0.6241  0.7812 -0.0161
 
              Baa    -0.0261    -1.007    -0.359    -0.336  0.6212  0.7835 -0.0154
    13 N(14)  Bbb    -0.0201    -0.775    -0.277    -0.259  0.6618 -0.5140  0.5457
              Bcc     0.0462     1.782     0.636     0.594 -0.4197  0.3492  0.8378
 
              Baa    -0.0184    -2.470    -0.881    -0.824 -0.4241  0.3411  0.8389
    14 C(13)  Bbb     0.0077     1.038     0.370     0.346  0.7408 -0.4023  0.5380
              Bcc     0.0107     1.432     0.511     0.478  0.5210  0.8496 -0.0821
 
              Baa    -0.0237    -3.181    -1.135    -1.061  0.6340 -0.5455  0.5481
    15 C(13)  Bbb    -0.0219    -2.943    -1.050    -0.982  0.6419  0.7665  0.0204
              Bcc     0.0456     6.124     2.185     2.043 -0.4313  0.3389  0.8362
 
              Baa    -0.0746    -2.876    -1.026    -0.959  0.9474 -0.2417  0.2097
    16 N(14)  Bbb    -0.0619    -2.387    -0.852    -0.796  0.2752  0.9499 -0.1484
              Bcc     0.1365     5.263     1.878     1.756 -0.1633  0.1983  0.9664
 
              Baa    -0.1180   -15.832    -5.649    -5.281 -0.2044  0.2004  0.9582
    17 C(13)  Bbb     0.0511     6.862     2.449     2.289 -0.3979  0.8773 -0.2684
              Bcc     0.0668     8.970     3.201     2.992  0.8944  0.4361  0.0996
 
              Baa    -0.2368   -31.778   -11.339   -10.600  0.9484 -0.2392  0.2082
    18 C(13)  Bbb    -0.2334   -31.315   -11.174   -10.446  0.2635  0.9597 -0.0977
              Bcc     0.4702    63.094    22.513    21.046 -0.1764  0.1475  0.9732
 
              Baa    -0.0088    -1.187    -0.424    -0.396  0.8668 -0.1615  0.4717
    19 C(13)  Bbb     0.0030     0.397     0.142     0.133  0.2289  0.9694 -0.0888
              Bcc     0.0059     0.790     0.282     0.263 -0.4429  0.1849  0.8773
 
              Baa    -0.0108    -1.453    -0.518    -0.485  0.0122  0.6342  0.7731
    20 C(13)  Bbb    -0.0067    -0.893    -0.319    -0.298  0.6553 -0.5890  0.4729
              Bcc     0.0175     2.346     0.837     0.783  0.7553  0.5008 -0.4228
 
              Baa    -0.0047    -0.629    -0.225    -0.210  0.9130 -0.1224  0.3891
    21 C(13)  Bbb    -0.0009    -0.115    -0.041    -0.038 -0.3179  0.3841  0.8668
              Bcc     0.0055     0.745     0.266     0.248  0.2555  0.9151 -0.3118
 
              Baa    -0.0036    -0.484    -0.173    -0.162 -0.3958  0.1944  0.8975
    22 C(13)  Bbb    -0.0008    -0.112    -0.040    -0.038  0.2522  0.9628 -0.0973
              Bcc     0.0044     0.597     0.213     0.199  0.8830 -0.1879  0.4301
 
              Baa    -0.0047    -0.635    -0.226    -0.212  0.8870 -0.1985  0.4170
    23 C(13)  Bbb    -0.0008    -0.110    -0.039    -0.037 -0.4262 -0.0040  0.9046
              Bcc     0.0055     0.745     0.266     0.248  0.1779  0.9801  0.0881
 
              Baa    -0.0109    -1.456    -0.520    -0.486 -0.2945 -0.3833  0.8754
    24 C(13)  Bbb    -0.0070    -0.934    -0.333    -0.312  0.8712  0.2689  0.4108
              Bcc     0.0178     2.390     0.853     0.797 -0.3929  0.8836  0.2547
 
              Baa    -0.0868   -11.645    -4.155    -3.884 -0.1693  0.1317  0.9767
    25 C(13)  Bbb     0.0369     4.950     1.766     1.651  0.6718  0.7405  0.0166
              Bcc     0.0499     6.695     2.389     2.233  0.7211 -0.6590  0.2139
 
              Baa    -0.0893   -11.978    -4.274    -3.995  0.0557  0.9963 -0.0656
    26 C(13)  Bbb    -0.0866   -11.622    -4.147    -3.877  0.9814 -0.0425  0.1873
              Bcc     0.1759    23.600     8.421     7.872 -0.1838  0.0748  0.9801
 
              Baa    -0.0021    -0.278    -0.099    -0.093 -0.4336  0.8759 -0.2116
    27 C(13)  Bbb     0.0004     0.054     0.019     0.018 -0.4991 -0.0380  0.8657
              Bcc     0.0017     0.224     0.080     0.075  0.7503  0.4810  0.4536
 
              Baa    -0.0495    -6.643    -2.370    -2.216 -0.2453  0.0303  0.9690
    28 C(13)  Bbb     0.0246     3.296     1.176     1.099  0.9055  0.3642  0.2179
              Bcc     0.0249     3.347     1.194     1.117 -0.3463  0.9308 -0.1168
 
              Baa    -0.0024    -0.262    -0.093    -0.087 -0.2181  0.0005  0.9759
    29 I(127) Bbb     0.0001     0.009     0.003     0.003  0.1252  0.9917  0.0275
              Bcc     0.0023     0.253     0.090     0.084  0.9679 -0.1282  0.2163
 
              Baa    -0.0864   -11.588    -4.135    -3.865  0.9876  0.0663  0.1426
    30 C(13)  Bbb    -0.0847   -11.361    -4.054    -3.790 -0.0500  0.9921 -0.1151
              Bcc     0.1710    22.949     8.189     7.655 -0.1491  0.1065  0.9831
 
              Baa    -0.0331    -4.445    -1.586    -1.483  0.4684  0.0851  0.8794
    31 C(13)  Bbb     0.0132     1.776     0.634     0.592  0.8443  0.2503 -0.4739
              Bcc     0.0199     2.669     0.952     0.890 -0.2605  0.9644  0.0454
 
              Baa    -0.0353    -4.735    -1.690    -1.579 -0.6409  0.1816  0.7458
    32 C(13)  Bbb    -0.0313    -4.194    -1.496    -1.399  0.0709  0.9815 -0.1781
              Bcc     0.0665     8.929     3.186     2.978  0.7643  0.0613  0.6419
 
              Baa    -0.0110    -1.473    -0.525    -0.491  0.7117  0.4089  0.5712
    33 C(13)  Bbb     0.0046     0.617     0.220     0.206  0.1483  0.7073 -0.6912
              Bcc     0.0064     0.856     0.305     0.286  0.6867 -0.5766 -0.4427
 
              Baa    -0.0086    -1.151    -0.411    -0.384 -0.0893 -0.4910  0.8666
    34 C(13)  Bbb    -0.0049    -0.664    -0.237    -0.221  0.9057 -0.4020 -0.1344
              Bcc     0.0135     1.814     0.647     0.605  0.4143  0.7729  0.4806
 
              Baa    -0.0058    -0.777    -0.277    -0.259  0.6025  0.5326  0.5944
    35 C(13)  Bbb     0.0017     0.229     0.082     0.076 -0.1007  0.7895 -0.6054
              Bcc     0.0041     0.548     0.196     0.183  0.7918 -0.3049 -0.5293
 
              Baa    -0.0094    -1.268    -0.452    -0.423 -0.0255  0.7994 -0.6002
    36 C(13)  Bbb    -0.0082    -1.102    -0.393    -0.368  0.7148 -0.4051 -0.5700
              Bcc     0.0177     2.370     0.846     0.790  0.6988  0.4436  0.5611
 
              Baa    -0.0024    -0.323    -0.115    -0.108  0.6999  0.4726  0.5355
    37 C(13)  Bbb    -0.0005    -0.071    -0.025    -0.024 -0.2498  0.8644 -0.4363
              Bcc     0.0029     0.393     0.140     0.131 -0.6691  0.1716  0.7231
 
              Baa    -0.0074    -0.284    -0.101    -0.095 -0.6788  0.0264  0.7338
    38 N(14)  Bbb    -0.0058    -0.222    -0.079    -0.074 -0.3305  0.8814 -0.3375
              Bcc     0.0131     0.506     0.181     0.169  0.6557  0.4716  0.5896
 
              Baa    -0.0062    -0.830    -0.296    -0.277  0.6313  0.4944  0.5975
    39 C(13)  Bbb     0.0025     0.341     0.122     0.114 -0.1436  0.8317 -0.5364
              Bcc     0.0036     0.489     0.175     0.163  0.7621 -0.2528 -0.5961
 
              Baa    -0.0076    -1.025    -0.366    -0.342 -0.1261 -0.6870  0.7157
    40 C(13)  Bbb    -0.0065    -0.869    -0.310    -0.290  0.8260 -0.4722 -0.3077
              Bcc     0.0141     1.895     0.676     0.632  0.5494  0.5523  0.6270
 
              Baa    -0.0464    -1.789    -0.638    -0.597  0.9115 -0.3621  0.1950
    41 N(14)  Bbb    -0.0367    -1.417    -0.506    -0.473  0.3707  0.9287 -0.0082
              Bcc     0.0831     3.206     1.144     1.070 -0.1782  0.0798  0.9808
 
              Baa    -0.0022    -0.384    -0.137    -0.128 -0.2419  0.3988  0.8846
    42 B(11)  Bbb     0.0008     0.139     0.050     0.046  0.4616  0.8492 -0.2565
              Bcc     0.0014     0.245     0.088     0.082  0.8534 -0.3463  0.3895
 
              Baa    -0.0103    -5.180    -1.848    -1.728  0.3575  0.3492  0.8662
    43 F(19)  Bbb    -0.0083    -4.163    -1.485    -1.388  0.8869 -0.4175 -0.1977
              Bcc     0.0186     9.343     3.334     3.116  0.2926  0.8389 -0.4590
 
              Baa    -0.0107    -5.393    -1.925    -1.799  0.2523 -0.0870  0.9637
    44 F(19)  Bbb    -0.0073    -3.683    -1.314    -1.228  0.9451  0.2361 -0.2261
              Bcc     0.0181     9.076     3.239     3.028 -0.2078  0.9678  0.1418
 
              Baa    -0.0023    -1.220    -0.435    -0.407 -0.3216 -0.2327  0.9178
    45 H(1)   Bbb    -0.0009    -0.475    -0.170    -0.158  0.8830  0.2762  0.3794
              Bcc     0.0032     1.695     0.605     0.566 -0.3418  0.9325  0.1167
 
              Baa    -0.0017    -0.922    -0.329    -0.308  0.4167  0.6504  0.6351
    46 H(1)   Bbb    -0.0015    -0.775    -0.277    -0.259 -0.6750 -0.2466  0.6954
              Bcc     0.0032     1.698     0.606     0.566 -0.6089  0.7185 -0.3362
 
              Baa    -0.0026    -1.410    -0.503    -0.470 -0.1005  0.5053  0.8570
    47 H(1)   Bbb    -0.0005    -0.277    -0.099    -0.092  0.9680  0.2488 -0.0332
              Bcc     0.0032     1.687     0.602     0.563 -0.2300  0.8263 -0.5142
 
              Baa    -0.0038    -2.052    -0.732    -0.685  0.8427 -0.5339 -0.0697
    48 H(1)   Bbb    -0.0023    -1.208    -0.431    -0.403  0.0964  0.0224  0.9951
              Bcc     0.0061     3.261     1.164     1.088  0.5297  0.8452 -0.0704
 
              Baa    -0.0102    -5.432    -1.938    -1.812  0.2401  0.9452 -0.2213
    49 H(1)   Bbb    -0.0019    -1.004    -0.358    -0.335 -0.3921  0.3030  0.8686
              Bcc     0.0121     6.436     2.297     2.147  0.8880 -0.1218  0.4433
 
              Baa    -0.0016    -0.860    -0.307    -0.287 -0.3595  0.4233  0.8316
    50 H(1)   Bbb    -0.0009    -0.498    -0.178    -0.166  0.2700  0.9003 -0.3415
              Bcc     0.0025     1.358     0.484     0.453  0.8932 -0.1018  0.4380
 
              Baa    -0.0010    -0.525    -0.187    -0.175 -0.4040  0.3542  0.8434
    51 H(1)   Bbb    -0.0005    -0.256    -0.092    -0.086 -0.5568  0.6363 -0.5339
              Bcc     0.0015     0.781     0.279     0.261  0.7258  0.6853  0.0599
 
              Baa    -0.0009    -0.506    -0.180    -0.169 -0.3928  0.3453  0.8523
    52 H(1)   Bbb    -0.0005    -0.252    -0.090    -0.084  0.8166 -0.2952  0.4960
              Bcc     0.0014     0.757     0.270     0.253  0.4228  0.8909 -0.1661
 
              Baa    -0.0018    -0.958    -0.342    -0.320  0.8529  0.4799  0.2056
    53 H(1)   Bbb    -0.0012    -0.630    -0.225    -0.210 -0.3892  0.3220  0.8631
              Bcc     0.0030     1.589     0.567     0.530 -0.3480  0.8161 -0.4614
 
              Baa    -0.0033    -1.742    -0.622    -0.581  0.8376  0.0882  0.5391
    54 H(1)   Bbb    -0.0018    -0.935    -0.334    -0.312 -0.2747  0.9210  0.2761
              Bcc     0.0050     2.677     0.955     0.893 -0.4722 -0.3794  0.7957
 
              Baa    -0.0008    -0.426    -0.152    -0.142  0.8851 -0.1279  0.4474
    55 H(1)   Bbb    -0.0006    -0.346    -0.123    -0.115 -0.3004  0.5774  0.7592
              Bcc     0.0014     0.772     0.275     0.257  0.3554  0.8064 -0.4727
 
              Baa    -0.0009    -0.461    -0.165    -0.154 -0.2118  0.1579  0.9645
    56 H(1)   Bbb    -0.0005    -0.247    -0.088    -0.082  0.9460 -0.2145  0.2429
              Bcc     0.0013     0.708     0.253     0.236  0.2452  0.9639 -0.1040
 
              Baa    -0.0008    -0.429    -0.153    -0.143  0.9319 -0.1753  0.3176
    57 H(1)   Bbb    -0.0006    -0.334    -0.119    -0.111 -0.3535 -0.2422  0.9035
              Bcc     0.0014     0.763     0.272     0.254  0.0814  0.9543  0.2877
 
              Baa    -0.0034    -1.822    -0.650    -0.608  0.7329 -0.3439  0.5870
    58 H(1)   Bbb    -0.0017    -0.926    -0.331    -0.309  0.6466  0.6205 -0.4438
              Bcc     0.0052     2.749     0.981     0.917 -0.2116  0.7048  0.6771
 
              Baa    -0.0019    -1.027    -0.367    -0.343 -0.0042 -0.4907  0.8713
    59 H(1)   Bbb    -0.0015    -0.818    -0.292    -0.273 -0.4551  0.7768  0.4353
              Bcc     0.0035     1.845     0.658     0.616  0.8904  0.3947  0.2265
 
              Baa    -0.0028    -1.512    -0.539    -0.504 -0.2767 -0.2096  0.9378
    60 H(1)   Bbb    -0.0005    -0.293    -0.105    -0.098  0.7619 -0.6425  0.0813
              Bcc     0.0034     1.805     0.644     0.602  0.5855  0.7371  0.3375
 
              Baa    -0.0024    -1.265    -0.451    -0.422 -0.1266  0.5380  0.8334
    61 H(1)   Bbb    -0.0012    -0.626    -0.223    -0.209  0.6932 -0.5529  0.4623
              Bcc     0.0035     1.891     0.675     0.631  0.7095  0.6362 -0.3030
 
              Baa    -0.0023    -1.218    -0.435    -0.406  0.9356  0.1267  0.3296
    62 H(1)   Bbb    -0.0016    -0.827    -0.295    -0.276 -0.3518  0.2536  0.9011
              Bcc     0.0038     2.045     0.730     0.682 -0.0306  0.9590 -0.2818
 
              Baa    -0.0045    -2.422    -0.864    -0.808 -0.6091  0.4277  0.6678
    63 H(1)   Bbb    -0.0008    -0.441    -0.157    -0.147  0.7797  0.1692  0.6028
              Bcc     0.0054     2.863     1.022     0.955  0.1448  0.8879 -0.4366
 
              Baa    -0.0025    -1.324    -0.472    -0.442  0.6913  0.6664  0.2794
    64 H(1)   Bbb    -0.0013    -0.697    -0.249    -0.232  0.1589 -0.5174  0.8409
              Bcc     0.0038     2.021     0.721     0.674  0.7049 -0.5369 -0.4635
 
              Baa    -0.0007    -0.365    -0.130    -0.122  0.6881  0.1491  0.7102
    65 H(1)   Bbb    -0.0004    -0.227    -0.081    -0.076  0.1541  0.9263 -0.3438
              Bcc     0.0011     0.592     0.211     0.197  0.7091 -0.3460 -0.6144
 
              Baa    -0.0004    -0.225    -0.080    -0.075  0.6716  0.4647  0.5771
    66 H(1)   Bbb    -0.0000    -0.014    -0.005    -0.005 -0.1712  0.8551 -0.4893
              Bcc     0.0004     0.239     0.085     0.080  0.7208 -0.2298 -0.6539
 
              Baa    -0.0008    -0.412    -0.147    -0.137  0.5867  0.3737  0.7184
    67 H(1)   Bbb    -0.0003    -0.187    -0.067    -0.062  0.7978 -0.1149 -0.5918
              Bcc     0.0011     0.598     0.213     0.200 -0.1386  0.9204 -0.3656
 

 ---------------------------------------------------------------------------------

 No NMR shielding tensors so no spin-rotation constants.
 Leave Link  601 at Thu Nov  6 04:19:55 2025, MaxMem= 30870077440 cpu:             228.3 elap:               4.0
 (Enter /public/software/gauss/g16/l9999.exe)
 1\1\GINC-CU015\SP\UM062X\def2TZVPP\C35H23B1F2I2N4(1-,2)\BAIDING\06-Nov
 -2025\0\\#p M062X/DEF2TZVPP scrf=(solvent=water) em=GD3\\Energy calcul
 ation for M100032091_reduced\\-1,2\C,0,2.293839,-4.30258,0.72998\C,0,2
 .203446,-2.845047,0.390415\C,0,3.243792,-1.92229,0.451426\I,0,5.221667
 ,-2.378,0.988334\C,0,2.787215,-0.631187,0.066974\C,0,3.613465,0.531802
 ,0.010124\C,0,3.383336,1.777994,-0.506484\C,0,4.331223,2.876191,-0.481
 054\C,0,3.986486,4.080374,-1.144709\C,0,4.839694,5.171218,-1.170611\C,
 0,6.088791,5.09871,-0.521944\C,0,6.975538,6.213035,-0.541724\N,0,7.703
 855,7.126666,-0.558408\C,0,6.452789,3.912444,0.150322\C,0,5.590862,2.8
 29606,0.169751\N,0,1.433717,-0.764251,-0.221436\C,0,1.054968,-2.095459
 ,-0.03607\C,0,-0.284249,-2.517852,-0.220857\C,0,-0.655489,-3.956032,-0
 .065058\C,0,-1.267256,-4.415626,1.11221\C,0,-1.621444,-5.758994,1.2546
 25\C,0,-1.374314,-6.663626,0.218494\C,0,-0.769293,-6.217215,-0.959298\
 C,0,-0.411391,-4.87429,-1.098613\C,0,-1.294122,-1.562493,-0.534522\C,0
 ,-2.692936,-1.707682,-0.772792\C,0,-3.505071,-2.966217,-0.850035\C,0,-
 3.17858,-0.398771,-0.956887\I,0,-5.137079,0.075373,-1.528882\C,0,-2.11
 5101,0.520315,-0.858273\C,0,-2.041558,1.949282,-1.114892\C,0,-2.820608
 ,2.972716,-0.681719\C,0,-3.848221,3.031438,0.358457\C,0,-3.991116,2.06
 4123,1.37823\C,0,-4.938001,2.212499,2.380276\C,0,-5.784812,3.338263,2.
 388515\C,0,-6.765463,3.487668,3.41452\N,0,-7.567162,3.609239,4.254351\
 C,0,-5.653632,4.31819,1.387636\C,0,-4.691411,4.163638,0.399682\N,0,-0.
 970771,-0.216967,-0.62558\B,0,0.445394,0.379811,-0.529486\F,0,0.764494
 ,0.988158,-1.77371\F,0,0.494179,1.366942,0.469115\H,0,2.195298,-4.9400
 47,-0.155048\H,0,3.261518,-4.519796,1.18804\H,0,1.513502,-4.608214,1.4
 316\H,0,4.595497,0.345944,0.436271\H,0,2.449021,1.989103,-1.009642\H,0
 ,3.025987,4.144848,-1.647876\H,0,4.553381,6.081306,-1.687713\H,0,7.411
 843,3.856031,0.654955\H,0,5.895454,1.935863,0.703706\H,0,-1.461072,-3.
 715384,1.919753\H,0,-2.089754,-6.098596,2.174164\H,0,-1.651385,-7.7081
 46,0.328002\H,0,-0.576192,-6.913566,-1.770458\H,0,0.05786,-4.530442,-2
 .016003\H,0,-4.462722,-2.765503,-1.337182\H,0,-2.996413,-3.747483,-1.4
 19513\H,0,-3.723086,-3.381636,0.140754\H,0,-1.216476,2.22986,-1.766693
 \H,0,-2.612455,3.939791,-1.136628\H,0,-3.341144,1.197283,1.392066\H,0,
 -5.028412,1.46626,3.162641\H,0,-6.299467,5.189908,1.396823\H,0,-4.5846
 75,4.929215,-0.363266\\Version=ES64L-G16RevA.03\State=2-A\HF=-2386.672
 4253\S2=0.795406\S2-1=0.\S2A=0.751446\RMSD=6.432e-09\Dipole=-1.2488287
 ,-4.5349261,-0.7809796\Quadrupole=-51.7694624,19.3976095,32.3718529,-3
 0.9577367,30.5198795,-14.7492178\PG=C01 [X(C35H23B1F2I2N4)]\\@


 THE RARE EARTHS PERPLEX US IN OUR RESEARCHES,
 BAFFLE US IN OUR SPECULATIONS, AND HAUNT US IN OUR
 VERY DREAMS.  THEY STRETCH LIKE AN UNKNOWN BEFORE US,
 MOCKING, MYSTIFYING, AND MURMURING STRANGE REVELATIONS
 AND POSSIBILITIES.  -- SIR WILLIAM CROOKE, 1832-1919
 Job cpu time:       1 days  5 hours 13 minutes 57.2 seconds.
 Elapsed time:       0 days  0 hours 27 minutes 44.9 seconds.
 File lengths (MBytes):  RWF=   3230 Int=      0 D2E=      0 Chk=    208 Scr=      1
 Normal termination of Gaussian 16 at Thu Nov  6 04:19:56 2025.
