 Entering Gaussian System, Link 0=g16
 Input=M100033922_sp.gjf
 Output=M100033922_sp.log
 Initial command:
 /public/software/gauss/g16/l1.exe "/public/home/baiding/1101_v2_sp/tmp_M100033922_sp_1568608/Gau-4168659.inp" -scrdir="/public/home/baiding/1101_v2_sp/tmp_M100033922_sp_1568608/"
 Entering Link 1 = /public/software/gauss/g16/l1.exe PID=   4168660.
  
 Copyright (c) 1988,1990,1992,1993,1995,1998,2003,2009,2016,
            Gaussian, Inc.  All Rights Reserved.
  
 This is part of the Gaussian(R) 16 program.  It is based on
 the Gaussian(R) 09 system (copyright 2009, Gaussian, Inc.),
 the Gaussian(R) 03 system (copyright 2003, Gaussian, Inc.),
 the Gaussian(R) 98 system (copyright 1998, Gaussian, Inc.),
 the Gaussian(R) 94 system (copyright 1995, Gaussian, Inc.),
 the Gaussian 92(TM) system (copyright 1992, Gaussian, Inc.),
 the Gaussian 90(TM) system (copyright 1990, Gaussian, Inc.),
 the Gaussian 88(TM) system (copyright 1988, Gaussian, Inc.),
 the Gaussian 86(TM) system (copyright 1986, Carnegie Mellon
 University), and the Gaussian 82(TM) system (copyright 1983,
 Carnegie Mellon University). Gaussian is a federally registered
 trademark of Gaussian, Inc.
  
 This software contains proprietary and confidential information,
 including trade secrets, belonging to Gaussian, Inc.
  
 This software is provided under written license and may be
 used, copied, transmitted, or stored only in accord with that
 written license.
  
 The following legend is applicable only to US Government
 contracts under FAR:
  
                    RESTRICTED RIGHTS LEGEND
  
 Use, reproduction and disclosure by the US Government is
 subject to restrictions as set forth in subparagraphs (a)
 and (c) of the Commercial Computer Software - Restricted
 Rights clause in FAR 52.227-19.
  
 Gaussian, Inc.
 340 Quinnipiac St., Bldg. 40, Wallingford CT 06492
  
  
 ---------------------------------------------------------------
 Warning -- This program may not be used in any manner that
 competes with the business of Gaussian, Inc. or will provide
 assistance to any competitor of Gaussian, Inc.  The licensee
 of this program is prohibited from giving any competitor of
 Gaussian, Inc. access to this program.  By using this program,
 the user acknowledges that Gaussian, Inc. is engaged in the
 business of creating and licensing software in the field of
 computational chemistry and represents and warrants to the
 licensee that it is not a competitor of Gaussian, Inc. and that
 it will not use this program in any manner prohibited above.
 ---------------------------------------------------------------
  

 Cite this work as:
 Gaussian 16, Revision A.03,
 M. J. Frisch, G. W. Trucks, H. B. Schlegel, G. E. Scuseria, 
 M. A. Robb, J. R. Cheeseman, G. Scalmani, V. Barone, 
 G. A. Petersson, H. Nakatsuji, X. Li, M. Caricato, A. V. Marenich, 
 J. Bloino, B. G. Janesko, R. Gomperts, B. Mennucci, H. P. Hratchian, 
 J. V. Ortiz, A. F. Izmaylov, J. L. Sonnenberg, D. Williams-Young, 
 F. Ding, F. Lipparini, F. Egidi, J. Goings, B. Peng, A. Petrone, 
 T. Henderson, D. Ranasinghe, V. G. Zakrzewski, J. Gao, N. Rega, 
 G. Zheng, W. Liang, M. Hada, M. Ehara, K. Toyota, R. Fukuda, 
 J. Hasegawa, M. Ishida, T. Nakajima, Y. Honda, O. Kitao, H. Nakai, 
 T. Vreven, K. Throssell, J. A. Montgomery, Jr., J. E. Peralta, 
 F. Ogliaro, M. J. Bearpark, J. J. Heyd, E. N. Brothers, K. N. Kudin, 
 V. N. Staroverov, T. A. Keith, R. Kobayashi, J. Normand, 
 K. Raghavachari, A. P. Rendell, J. C. Burant, S. S. Iyengar, 
 J. Tomasi, M. Cossi, J. M. Millam, M. Klene, C. Adamo, R. Cammi, 
 J. W. Ochterski, R. L. Martin, K. Morokuma, O. Farkas, 
 J. B. Foresman, and D. J. Fox, Gaussian, Inc., Wallingford CT, 2016.
 
 ******************************************
 Gaussian 16:  ES64L-G16RevA.03 25-Dec-2016
                 6-Nov-2025 
 ******************************************
 %nprocshared=64
 Will use up to   64 processors via shared memory.
 %mem=230GB
 %chk=M100033922_sp.chk
 ----------------------------------------------
 #p M062X/DEF2TZVPP scrf=(solvent=water) em=GD3
 ----------------------------------------------
 1/38=1,172=1/1;
 2/12=2,17=6,18=5,40=1/2;
 3/5=44,7=202,11=2,25=1,30=1,70=2201,72=1,74=-55,124=31/1,2,3;
 4//1;
 5/5=2,38=5,53=1/2;
 6/7=2,8=2,9=2,10=2,28=1/1;
 99/5=1,9=1/99;
 Leave Link    1 at Thu Nov  6 18:09:15 2025, MaxMem= 30870077440 cpu:              25.5 elap:               0.4
 (Enter /public/software/gauss/g16/l101.exe)
 ---------------------------------
 Energy calculation for M100033922
 ---------------------------------
 Symbolic Z-matrix:
 Charge =  0 Multiplicity = 1
 C                    -5.98467  -5.31242  -0.88497 
 O                    -5.07765  -4.92702   0.15425 
 C                    -4.49687  -3.69225   0.0779 
 C                    -4.73488  -2.76752  -0.94723 
 C                    -4.08884  -1.53303  -0.91887 
 C                    -3.18754  -1.20012   0.10486 
 C                    -2.53867   0.12235   0.09251 
 C                    -3.18737   1.39431   0.00455 
 C                    -4.61733   1.69458  -0.00702 
 C                    -5.23482   2.72477  -0.68115 
 C                    -6.63174   2.82887  -0.41655 
 C                    -7.07712   1.88283   0.46483 
 S                    -5.79013   0.84144   0.98725 
 C                    -2.1776    2.35369  -0.04581 
 C                    -0.9404    1.67974   0.01714 
 C                     0.36751   2.18479  -0.06419 
 C                     0.59083   3.6511   -0.11226 
 C                     0.04176   4.4869    0.87609 
 C                     0.25032   5.86009   0.83726 
 C                     1.0091    6.41742  -0.20532 
 C                     1.22292   7.83157  -0.25253 
 N                     1.39714   8.98379  -0.29074 
 C                     1.55932   5.59373  -1.20133 
 C                     1.35255   4.22062  -1.14777 
 C                     1.46337   1.30875  -0.10139 
 C                     2.84665   1.58448  -0.06491 
 C                     3.52289   0.36675  -0.0519 
 C                     4.97048   0.17949  -0.06216 
 C                     5.72966  -0.79143  -0.67603 
 C                     7.13358  -0.61884  -0.49385 
 C                     7.44522   0.48102   0.25663 
 S                     6.01641   1.32777   0.76294 
 C                     2.52088  -0.6576   -0.06755 
 C                     2.74553  -2.11198   0.00026 
 C                     2.23941  -2.99444  -0.96513 
 C                     2.49131  -4.36496  -0.89651 
 C                     3.25643  -4.8763    0.15864 
 O                     3.55651  -6.19931   0.32627 
 C                     3.05249  -7.13266  -0.63571 
 C                     3.77112  -4.0052    1.1327 
 C                     3.52655  -2.64347   1.04642 
 N                     1.29321  -0.07789  -0.11078 
 B                    -0.09122  -0.80088   0.02326 
 F                    -0.34823  -1.59125  -1.09802 
 F                    -0.07413  -1.5782    1.18178 
 N                    -1.1921    0.30915   0.11217 
 C                    -2.96168  -2.14199   1.12745 
 C                    -3.61056  -3.3682    1.11723 
 H                    -5.48671  -5.3295   -1.86017 
 H                    -6.31704  -6.31904  -0.62922 
 H                    -6.8497   -4.6421   -0.92572 
 H                    -5.41165  -2.99573  -1.76116 
 H                    -4.2777   -0.82256  -1.71717 
 H                    -4.69768   3.38074  -1.35713 
 H                    -7.2778    3.57128  -0.8713 
 H                    -8.08275   1.71975   0.8292 
 H                    -2.31329   3.42315  -0.10399 
 H                    -0.53157   4.05565   1.6888 
 H                    -0.16543   6.50027   1.60725 
 H                     2.13803   6.03068  -2.00734 
 H                     1.76517   3.58649  -1.92421 
 H                     3.28878   2.56992  -0.06645 
 H                     5.29454  -1.59491  -1.25746 
 H                     7.87997  -1.285    -0.91166 
 H                     8.42103   0.84731   0.54649 
 H                     1.64332  -2.60952  -1.78269 
 H                     2.09216  -5.01671  -1.66383 
 H                     3.44119  -6.91996  -1.63723 
 H                     3.40435  -8.11221  -0.31032 
 H                     1.95759  -7.12745  -0.65803 
 H                     4.35828  -4.41587   1.94767 
 H                     3.92853  -1.98131   1.80612 
 H                    -2.27716  -1.90724   1.93253 
 H                    -3.44492  -4.09137   1.90924 
 
 ITRead=  0  0  0  0  0  0  0  0  0  0  0  0  0  0  0  0  0  0  0  0
 ITRead=  0  0  0  0  0  0  0  0  0  0  0  0  0  0  0  0  0  0  0  0
 ITRead=  0  0  0  0  0  0  0  0  0  0  0  0  0  0  0  0  0  0  0  0
 ITRead=  0  0  0  0  0  0  0  0  0  0  0  0  0  0
 MicOpt= -1 -1 -1 -1 -1 -1 -1 -1 -1 -1 -1 -1 -1 -1 -1 -1 -1 -1 -1 -1
 MicOpt= -1 -1 -1 -1 -1 -1 -1 -1 -1 -1 -1 -1 -1 -1 -1 -1 -1 -1 -1 -1
 MicOpt= -1 -1 -1 -1 -1 -1 -1 -1 -1 -1 -1 -1 -1 -1 -1 -1 -1 -1 -1 -1
 MicOpt= -1 -1 -1 -1 -1 -1 -1 -1 -1 -1 -1 -1 -1 -1
 NAtoms=     74 NQM=       74 NQMF=       0 NMMI=      0 NMMIF=      0
                NMic=       0 NMicF=      0.
                    Isotopes and Nuclear Properties:
 (Nuclear quadrupole moments (NQMom) in fm**2, nuclear magnetic moments (NMagM)
  in nuclear magnetons)

  Atom         1           2           3           4           5           6           7           8           9          10
 IAtWgt=          12          16          12          12          12          12          12          12          12          12
 AtmWgt=  12.0000000  15.9949146  12.0000000  12.0000000  12.0000000  12.0000000  12.0000000  12.0000000  12.0000000  12.0000000
 NucSpn=           0           0           0           0           0           0           0           0           0           0
 AtZEff=  -0.0000000  -0.0000000  -0.0000000  -0.0000000  -0.0000000  -0.0000000  -0.0000000  -0.0000000  -0.0000000  -0.0000000
 NQMom=    0.0000000   0.0000000   0.0000000   0.0000000   0.0000000   0.0000000   0.0000000   0.0000000   0.0000000   0.0000000
 NMagM=    0.0000000   0.0000000   0.0000000   0.0000000   0.0000000   0.0000000   0.0000000   0.0000000   0.0000000   0.0000000
 AtZNuc=   6.0000000   8.0000000   6.0000000   6.0000000   6.0000000   6.0000000   6.0000000   6.0000000   6.0000000   6.0000000

  Atom        11          12          13          14          15          16          17          18          19          20
 IAtWgt=          12          12          32          12          12          12          12          12          12          12
 AtmWgt=  12.0000000  12.0000000  31.9720718  12.0000000  12.0000000  12.0000000  12.0000000  12.0000000  12.0000000  12.0000000
 NucSpn=           0           0           0           0           0           0           0           0           0           0
 AtZEff=  -0.0000000  -0.0000000  -0.0000000  -0.0000000  -0.0000000  -0.0000000  -0.0000000  -0.0000000  -0.0000000  -0.0000000
 NQMom=    0.0000000   0.0000000   0.0000000   0.0000000   0.0000000   0.0000000   0.0000000   0.0000000   0.0000000   0.0000000
 NMagM=    0.0000000   0.0000000   0.0000000   0.0000000   0.0000000   0.0000000   0.0000000   0.0000000   0.0000000   0.0000000
 AtZNuc=   6.0000000   6.0000000  16.0000000   6.0000000   6.0000000   6.0000000   6.0000000   6.0000000   6.0000000   6.0000000

  Atom        21          22          23          24          25          26          27          28          29          30
 IAtWgt=          12          14          12          12          12          12          12          12          12          12
 AtmWgt=  12.0000000  14.0030740  12.0000000  12.0000000  12.0000000  12.0000000  12.0000000  12.0000000  12.0000000  12.0000000
 NucSpn=           0           2           0           0           0           0           0           0           0           0
 AtZEff=  -0.0000000  -0.0000000  -0.0000000  -0.0000000  -0.0000000  -0.0000000  -0.0000000  -0.0000000  -0.0000000  -0.0000000
 NQMom=    0.0000000   2.0440000   0.0000000   0.0000000   0.0000000   0.0000000   0.0000000   0.0000000   0.0000000   0.0000000
 NMagM=    0.0000000   0.4037610   0.0000000   0.0000000   0.0000000   0.0000000   0.0000000   0.0000000   0.0000000   0.0000000
 AtZNuc=   6.0000000   7.0000000   6.0000000   6.0000000   6.0000000   6.0000000   6.0000000   6.0000000   6.0000000   6.0000000

  Atom        31          32          33          34          35          36          37          38          39          40
 IAtWgt=          12          32          12          12          12          12          12          16          12          12
 AtmWgt=  12.0000000  31.9720718  12.0000000  12.0000000  12.0000000  12.0000000  12.0000000  15.9949146  12.0000000  12.0000000
 NucSpn=           0           0           0           0           0           0           0           0           0           0
 AtZEff=  -0.0000000  -0.0000000  -0.0000000  -0.0000000  -0.0000000  -0.0000000  -0.0000000  -0.0000000  -0.0000000  -0.0000000
 NQMom=    0.0000000   0.0000000   0.0000000   0.0000000   0.0000000   0.0000000   0.0000000   0.0000000   0.0000000   0.0000000
 NMagM=    0.0000000   0.0000000   0.0000000   0.0000000   0.0000000   0.0000000   0.0000000   0.0000000   0.0000000   0.0000000
 AtZNuc=   6.0000000  16.0000000   6.0000000   6.0000000   6.0000000   6.0000000   6.0000000   8.0000000   6.0000000   6.0000000

  Atom        41          42          43          44          45          46          47          48          49          50
 IAtWgt=          12          14          11          19          19          14          12          12           1           1
 AtmWgt=  12.0000000  14.0030740  11.0093053  18.9984033  18.9984033  14.0030740  12.0000000  12.0000000   1.0078250   1.0078250
 NucSpn=           0           2           3           1           1           2           0           0           1           1
 AtZEff=  -0.0000000  -0.0000000  -0.0000000  -0.0000000  -0.0000000  -0.0000000  -0.0000000  -0.0000000  -0.0000000  -0.0000000
 NQMom=    0.0000000   2.0440000   4.0590000   0.0000000   0.0000000   2.0440000   0.0000000   0.0000000   0.0000000   0.0000000
 NMagM=    0.0000000   0.4037610   2.6886370   2.6288670   2.6288670   0.4037610   0.0000000   0.0000000   2.7928460   2.7928460
 AtZNuc=   6.0000000   7.0000000   5.0000000   9.0000000   9.0000000   7.0000000   6.0000000   6.0000000   1.0000000   1.0000000

  Atom        51          52          53          54          55          56          57          58          59          60
 IAtWgt=           1           1           1           1           1           1           1           1           1           1
 AtmWgt=   1.0078250   1.0078250   1.0078250   1.0078250   1.0078250   1.0078250   1.0078250   1.0078250   1.0078250   1.0078250
 NucSpn=           1           1           1           1           1           1           1           1           1           1
 AtZEff=  -0.0000000  -0.0000000  -0.0000000  -0.0000000  -0.0000000  -0.0000000  -0.0000000  -0.0000000  -0.0000000  -0.0000000
 NQMom=    0.0000000   0.0000000   0.0000000   0.0000000   0.0000000   0.0000000   0.0000000   0.0000000   0.0000000   0.0000000
 NMagM=    2.7928460   2.7928460   2.7928460   2.7928460   2.7928460   2.7928460   2.7928460   2.7928460   2.7928460   2.7928460
 AtZNuc=   1.0000000   1.0000000   1.0000000   1.0000000   1.0000000   1.0000000   1.0000000   1.0000000   1.0000000   1.0000000

  Atom        61          62          63          64          65          66          67          68          69          70
 IAtWgt=           1           1           1           1           1           1           1           1           1           1
 AtmWgt=   1.0078250   1.0078250   1.0078250   1.0078250   1.0078250   1.0078250   1.0078250   1.0078250   1.0078250   1.0078250
 NucSpn=           1           1           1           1           1           1           1           1           1           1
 AtZEff=  -0.0000000  -0.0000000  -0.0000000  -0.0000000  -0.0000000  -0.0000000  -0.0000000  -0.0000000  -0.0000000  -0.0000000
 NQMom=    0.0000000   0.0000000   0.0000000   0.0000000   0.0000000   0.0000000   0.0000000   0.0000000   0.0000000   0.0000000
 NMagM=    2.7928460   2.7928460   2.7928460   2.7928460   2.7928460   2.7928460   2.7928460   2.7928460   2.7928460   2.7928460
 AtZNuc=   1.0000000   1.0000000   1.0000000   1.0000000   1.0000000   1.0000000   1.0000000   1.0000000   1.0000000   1.0000000

  Atom        71          72          73          74
 IAtWgt=           1           1           1           1
 AtmWgt=   1.0078250   1.0078250   1.0078250   1.0078250
 NucSpn=           1           1           1           1
 AtZEff=  -0.0000000  -0.0000000  -0.0000000  -0.0000000
 NQMom=    0.0000000   0.0000000   0.0000000   0.0000000
 NMagM=    2.7928460   2.7928460   2.7928460   2.7928460
 AtZNuc=   1.0000000   1.0000000   1.0000000   1.0000000
 Leave Link  101 at Thu Nov  6 18:09:15 2025, MaxMem= 30870077440 cpu:               3.9 elap:               0.1
 (Enter /public/software/gauss/g16/l202.exe)
 Stoichiometry    C38H26BF2N3O2S2
 Framework group  C1[X(C38H26BF2N3O2S2)]
 Deg. of freedom   216
 Full point group                 C1      NOp   1
 Largest Abelian subgroup         C1      NOp   1
 Largest concise Abelian subgroup C1      NOp   1
                         Standard orientation:                         
 ---------------------------------------------------------------------
 Center     Atomic      Atomic             Coordinates (Angstroms)
 Number     Number       Type             X           Y           Z
 ---------------------------------------------------------------------
      1          6           0        5.984669   -5.312424    0.884968
      2          8           0        5.077647   -4.927017   -0.154249
      3          6           0        4.496874   -3.692253   -0.077895
      4          6           0        4.734882   -2.767521    0.947232
      5          6           0        4.088839   -1.533030    0.918866
      6          6           0        3.187542   -1.200121   -0.104857
      7          6           0        2.538672    0.122352   -0.092511
      8          6           0        3.187373    1.394312   -0.004554
      9          6           0        4.617334    1.694580    0.007022
     10          6           0        5.234819    2.724773    0.681147
     11          6           0        6.631737    2.828869    0.416551
     12          6           0        7.077116    1.882833   -0.464827
     13         16           0        5.790130    0.841442   -0.987248
     14          6           0        2.177602    2.353689    0.045807
     15          6           0        0.940395    1.679741   -0.017144
     16          6           0       -0.367508    2.184791    0.064186
     17          6           0       -0.590833    3.651095    0.112262
     18          6           0       -0.041763    4.486900   -0.876088
     19          6           0       -0.250324    5.860092   -0.837262
     20          6           0       -1.009103    6.417424    0.205323
     21          6           0       -1.222924    7.831574    0.252529
     22          7           0       -1.397135    8.983785    0.290743
     23          6           0       -1.559315    5.593733    1.201331
     24          6           0       -1.352550    4.220616    1.147774
     25          6           0       -1.463366    1.308750    0.101394
     26          6           0       -2.846650    1.584479    0.064911
     27          6           0       -3.522890    0.366754    0.051897
     28          6           0       -4.970481    0.179485    0.062159
     29          6           0       -5.729659   -0.791432    0.676026
     30          6           0       -7.133575   -0.618838    0.493847
     31          6           0       -7.445219    0.481016   -0.256629
     32         16           0       -6.016413    1.327765   -0.762938
     33          6           0       -2.520880   -0.657595    0.067546
     34          6           0       -2.745533   -2.111977   -0.000258
     35          6           0       -2.239413   -2.994435    0.965126
     36          6           0       -2.491308   -4.364957    0.896510
     37          6           0       -3.256433   -4.876297   -0.158639
     38          8           0       -3.556507   -6.199311   -0.326265
     39          6           0       -3.052490   -7.132660    0.635713
     40          6           0       -3.771121   -4.005198   -1.132700
     41          6           0       -3.526550   -2.643465   -1.046419
     42          7           0       -1.293205   -0.077891    0.110784
     43          5           0        0.091223   -0.800883   -0.023256
     44          9           0        0.348228   -1.591254    1.098020
     45          9           0        0.074134   -1.578203   -1.181783
     46          7           0        1.192100    0.309145   -0.112169
     47          6           0        2.961681   -2.141992   -1.127453
     48          6           0        3.610561   -3.368195   -1.117229
     49          1           0        5.486707   -5.329501    1.860165
     50          1           0        6.317042   -6.319044    0.629215
     51          1           0        6.849704   -4.642095    0.925718
     52          1           0        5.411650   -2.995726    1.761157
     53          1           0        4.277702   -0.822561    1.717171
     54          1           0        4.697683    3.380744    1.357129
     55          1           0        7.277797    3.571275    0.871300
     56          1           0        8.082746    1.719750   -0.829198
     57          1           0        2.313287    3.423150    0.103990
     58          1           0        0.531574    4.055649   -1.688802
     59          1           0        0.165427    6.500268   -1.607250
     60          1           0       -2.138035    6.030679    2.007345
     61          1           0       -1.765166    3.586489    1.924210
     62          1           0       -3.288782    2.569916    0.066448
     63          1           0       -5.294540   -1.594914    1.257464
     64          1           0       -7.879974   -1.285004    0.911657
     65          1           0       -8.421027    0.847314   -0.546493
     66          1           0       -1.643319   -2.609518    1.782693
     67          1           0       -2.092164   -5.016709    1.663828
     68          1           0       -3.441186   -6.919963    1.637232
     69          1           0       -3.404345   -8.112209    0.310322
     70          1           0       -1.957593   -7.127448    0.658028
     71          1           0       -4.358281   -4.415875   -1.947673
     72          1           0       -3.928527   -1.981310   -1.806123
     73          1           0        2.277162   -1.907242   -1.932528
     74          1           0        3.444920   -4.091366   -1.909244
 ---------------------------------------------------------------------
 Rotational constants (GHZ):           0.0580708           0.0479770           0.0272459
 Leave Link  202 at Thu Nov  6 18:09:15 2025, MaxMem= 30870077440 cpu:               0.2 elap:               0.0
 (Enter /public/software/gauss/g16/l301.exe)
 Standard basis: def2TZVPP (5D, 7F)
 Ernie: Thresh=  0.10000D-02 Tol=  0.10000D-05 Strict=F.
 There are  2142 symmetry adapted cartesian basis functions of A   symmetry.
 There are  1874 symmetry adapted basis functions of A   symmetry.
  1874 basis functions,  2926 primitive gaussians,  2142 cartesian basis functions
   173 alpha electrons      173 beta electrons
       nuclear repulsion energy      6041.5632088410 Hartrees.
 IExCor= 4336 DFT=T Ex+Corr=M062X ExCW=0 ScaHFX=  0.540000
 ScaDFX=  1.000000  1.000000  1.000000  1.000000 ScalE2=  1.000000  1.000000
 IRadAn=      5 IRanWt=     -1 IRanGd=            0 ICorTp=0 IEmpDi=131
 NAtoms=   74 NActive=   74 NUniq=   74 SFac= 1.00D+00 NAtFMM=   60 NAOKFM=T Big=T
 Integral buffers will be    131072 words long.
 Raffenetti 2 integral format.
 Two-electron integral symmetry is turned on.
 R6Disp:  Grimme-D3 Dispersion energy=       -0.0070492308 Hartrees.
 Nuclear repulsion after empirical dispersion term =     6041.5561596103 Hartrees.
 ------------------------------------------------------------------------------
 Polarizable Continuum Model (PCM)
 =================================
 Model                : PCM.
 Atomic radii         : UFF (Universal Force Field).
 Polarization charges : Total charges.
 Charge compensation  : None.
 Solution method      : On-the-fly selection.
 Cavity type          : Scaled VdW (van der Waals Surface) (Alpha=1.100).
 Cavity algorithm     : GePol (No added spheres)
                        Default sphere list used, NSphG=   74.
                        Lebedev-Laikov grids with approx.  5.0 points / Ang**2.
                        Smoothing algorithm: York/Karplus (Gamma=1.0000).
                        Polarization charges: spherical gaussians, with
                                              point-specific exponents (IZeta= 3).
                        Self-potential: point-specific (ISelfS= 7).
                        Self-field    : sphere-specific E.n sum rule (ISelfD= 2).
 Solvent              : Water, Eps=  78.355300 Eps(inf)=   1.777849
 ------------------------------------------------------------------------------
 GePol: Number of generator spheres                  =      74
 GePol: Total number of spheres                      =      74
 GePol: Number of exposed spheres                    =      74 (100.00%)
 GePol: Number of points                             =    5698
 GePol: Average weight of points                     =       0.13
 GePol: Minimum weight of points                     =   0.63D-10
 GePol: Maximum weight of points                     =    0.20577
 GePol: Number of points with low weight             =     387
 GePol: Fraction of low-weight points (<1% of avg)   =       6.79%
 GePol: Cavity surface area                          =    723.889 Ang**2
 GePol: Cavity volume                                =    843.247 Ang**3
 Leave Link  301 at Thu Nov  6 18:09:15 2025, MaxMem= 30870077440 cpu:               4.0 elap:               0.1
 (Enter /public/software/gauss/g16/l302.exe)
 NPDir=0 NMtPBC=     1 NCelOv=     1 NCel=       1 NClECP=     1 NCelD=      1
         NCelK=      1 NCelE2=     1 NClLst=     1 CellRange=     0.0.
 One-electron integrals computed using PRISM.
 One-electron integral symmetry used in STVInt
   1 Symmetry operations used in ECPInt.
 ECPInt:  NShTT=  238395 NPrTT=  700313 LenC2=  158246 LenP2D=  307503.
 LDataN:  DoStor=T MaxTD1= 6 Len=  172
 NBasis=  1874 RedAO= T EigKep=  5.98D-06  NBF=  1874
 NBsUse=  1874 1.00D-06 EigRej= -1.00D+00 NBFU=  1874
 Precomputing XC quadrature grid using
 IXCGrd= 4 IRadAn=           5 IRanWt=          -1 IRanGd=           0 AccXCQ= 0.00D+00.
 Generated NRdTot=       0 NPtTot=           0 NUsed=           0 NTot=          32
 NSgBfM=  1952  1947  1948  1952  1952 MxSgAt=    74 MxSgA2=    74.
 Leave Link  302 at Thu Nov  6 18:09:24 2025, MaxMem= 30870077440 cpu:             610.0 elap:               9.6
 (Enter /public/software/gauss/g16/l303.exe)
 DipDrv:  MaxL=1.
 Leave Link  303 at Thu Nov  6 18:09:25 2025, MaxMem= 30870077440 cpu:              28.8 elap:               0.5
 (Enter /public/software/gauss/g16/l401.exe)
 ExpMin= 6.06D-02 ExpMax= 6.07D+04 ExpMxC= 2.07D+03 IAcc=3 IRadAn=         5 AccDes= 0.00D+00
 Harris functional with IExCor= 1009 and IRadAn=       5 diagonalized for initial guess.
 HarFok:  IExCor= 1009 AccDes= 0.00D+00 IRadAn=         5 IDoV= 1 UseB2=F ITyADJ=14
 ICtDFT=  3500011 ScaDFX=  1.000000  1.000000  1.000000  1.000000
 FoFCou: FMM=F IPFlag=           0 FMFlag=      100000 FMFlg1=        2001
         NFxFlg=           0 DoJE=T BraDBF=F KetDBF=T FulRan=T
         wScrn=  0.000000 ICntrl=       500 IOpCl=  0 I1Cent=   200000004 NGrid=           0
         NMat0=    1 NMatS0=      1 NMatT0=    0 NMatD0=    1 NMtDS0=    0 NMtDT0=    0
 Petite list used in FoFCou.
 Harris En= -2798.03027617242    
 JPrj=0 DoOrth=F DoCkMO=F.
 Leave Link  401 at Thu Nov  6 18:09:36 2025, MaxMem= 30870077440 cpu:             708.1 elap:              11.1
 (Enter /public/software/gauss/g16/l502.exe)
 Integral symmetry usage will be decided dynamically.
 Closed shell SCF:
 Using DIIS extrapolation, IDIIS=  1040.
 NGot= 30870077440 LenX= 30860746142 LenY= 30856155836
 Requested convergence on RMS density matrix=1.00D-08 within 128 cycles.
 Requested convergence on MAX density matrix=1.00D-06.
 Requested convergence on             energy=1.00D-06.
 No special actions if energy rises.
 Fock matrices will be formed incrementally for  20 cycles.

 Cycle   1  Pass 1  IDiag  1:
 FoFJK:  IHMeth= 1 ICntrl=       0 DoSepK=F KAlg= 0 I1Cent=           0 FoldK=F
 IRaf= 630000000 NMat=       1 IRICut=       1 DoRegI=T DoRafI=F ISym2E= 0 IDoP0=0 IntGTp=1.
 FoFCou: FMM=T IPFlag=           0 FMFlag=      100000 FMFlg1=        2001
         NFxFlg=           0 DoJE=F BraDBF=F KetDBF=F FulRan=T
         wScrn=  0.000000 ICntrl=         0 IOpCl=  0 I1Cent=           0 NGrid=           0
         NMat0=    1 NMatS0=      1 NMatT0=    0 NMatD0=    1 NMtDS0=    0 NMtDT0=    0
 Symmetry not used in FoFCou.
 FMM levels:  10  Number of levels for PrismC:   9
 Inv3:  Mode=1 IEnd=    97401612.
 Iteration    1 A*A^-1 deviation from unit magnitude is 8.55D-15 for   5694.
 Iteration    1 A*A^-1 deviation from orthogonality  is 4.79D-15 for   3970    707.
 Iteration    1 A^-1*A deviation from unit magnitude is 8.33D-15 for   5694.
 Iteration    1 A^-1*A deviation from orthogonality  is 3.06D-07 for   4607   4599.
 Iteration    2 A*A^-1 deviation from unit magnitude is 2.66D-15 for   1582.
 Iteration    2 A*A^-1 deviation from orthogonality  is 5.58D-15 for   5696   1942.
 Iteration    2 A^-1*A deviation from unit magnitude is 1.55D-15 for    322.
 Iteration    2 A^-1*A deviation from orthogonality  is 1.83D-15 for   5679   2049.
 E= -2798.35740689414    
 DIIS: error= 1.39D-02 at cycle   1 NSaved=   1.
 NSaved= 1 IEnMin= 1 EnMin= -2798.35740689414     IErMin= 1 ErrMin= 1.39D-02
 ErrMax= 1.39D-02  0.00D+00 EMaxC= 1.00D-01 BMatC= 1.42D+00 BMatP= 1.42D+00
 IDIUse=3 WtCom= 8.61D-01 WtEn= 1.39D-01
 Coeff-Com:  0.100D+01
 Coeff-En:   0.100D+01
 Coeff:      0.100D+01
 Gap=     0.159 Goal=   None    Shift=    0.000
 GapD=    0.159 DampG=1.000 DampE=0.500 DampFc=0.5000 IDamp=-1.
 Damping current iteration by 5.00D-01
 RMSDP=1.74D-03 MaxDP=3.73D-01              OVMax= 2.40D-01

 Cycle   2  Pass 1  IDiag  1:
 RMSU=  8.67D-04    CP:  9.94D-01
 E= -2798.91126259481     Delta-E=       -0.553855700671 Rises=F Damp=T
 DIIS: error= 4.73D-03 at cycle   2 NSaved=   2.
 NSaved= 2 IEnMin= 2 EnMin= -2798.91126259481     IErMin= 2 ErrMin= 4.73D-03
 ErrMax= 4.73D-03  0.00D+00 EMaxC= 1.00D-01 BMatC= 1.33D-01 BMatP= 1.42D+00
 IDIUse=3 WtCom= 9.53D-01 WtEn= 4.73D-02
 Coeff-Com: -0.105D+00 0.110D+01
 Coeff-En:   0.000D+00 0.100D+01
 Coeff:     -0.997D-01 0.110D+01
 Gap=     0.169 Goal=   None    Shift=    0.000
 RMSDP=6.73D-04 MaxDP=5.96D-02 DE=-5.54D-01 OVMax= 1.96D-01

 Cycle   3  Pass 1  IDiag  1:
 RMSU=  6.66D-04    CP:  9.83D-01  1.10D+00
 E= -2799.43527365862     Delta-E=       -0.524011063813 Rises=F Damp=F
 DIIS: error= 4.38D-03 at cycle   3 NSaved=   3.
 NSaved= 3 IEnMin= 3 EnMin= -2799.43527365862     IErMin= 3 ErrMin= 4.38D-03
 ErrMax= 4.38D-03  0.00D+00 EMaxC= 1.00D-01 BMatC= 5.13D-02 BMatP= 1.33D-01
 IDIUse=3 WtCom= 9.56D-01 WtEn= 4.38D-02
 Coeff-Com: -0.118D+00 0.438D+00 0.680D+00
 Coeff-En:   0.000D+00 0.000D+00 0.100D+01
 Coeff:     -0.113D+00 0.419D+00 0.694D+00
 Gap=     0.144 Goal=   None    Shift=    0.000
 RMSDP=2.08D-04 MaxDP=3.05D-02 DE=-5.24D-01 OVMax= 5.94D-02

 Cycle   4  Pass 1  IDiag  1:
 RMSU=  1.98D-04    CP:  9.82D-01  1.14D+00  9.25D-01
 E= -2799.47716524976     Delta-E=       -0.041891591143 Rises=F Damp=F
 DIIS: error= 2.48D-03 at cycle   4 NSaved=   4.
 NSaved= 4 IEnMin= 4 EnMin= -2799.47716524976     IErMin= 4 ErrMin= 2.48D-03
 ErrMax= 2.48D-03  0.00D+00 EMaxC= 1.00D-01 BMatC= 9.88D-03 BMatP= 5.13D-02
 IDIUse=3 WtCom= 9.75D-01 WtEn= 2.48D-02
 Coeff-Com: -0.455D-01 0.120D+00 0.363D+00 0.562D+00
 Coeff-En:   0.000D+00 0.000D+00 0.929D-01 0.907D+00
 Coeff:     -0.443D-01 0.117D+00 0.356D+00 0.571D+00
 Gap=     0.144 Goal=   None    Shift=    0.000
 RMSDP=7.51D-05 MaxDP=1.18D-02 DE=-4.19D-02 OVMax= 2.30D-02

 Cycle   5  Pass 1  IDiag  1:
 RMSU=  5.75D-05    CP:  9.82D-01  1.15D+00  9.43D-01  7.65D-01
 E= -2799.48523970536     Delta-E=       -0.008074455593 Rises=F Damp=F
 DIIS: error= 1.06D-03 at cycle   5 NSaved=   5.
 NSaved= 5 IEnMin= 5 EnMin= -2799.48523970536     IErMin= 5 ErrMin= 1.06D-03
 ErrMax= 1.06D-03  0.00D+00 EMaxC= 1.00D-01 BMatC= 1.02D-03 BMatP= 9.88D-03
 IDIUse=3 WtCom= 9.89D-01 WtEn= 1.06D-02
 Coeff-Com: -0.137D-01 0.269D-01 0.140D+00 0.314D+00 0.532D+00
 Coeff-En:   0.000D+00 0.000D+00 0.000D+00 0.000D+00 0.100D+01
 Coeff:     -0.136D-01 0.266D-01 0.139D+00 0.311D+00 0.537D+00
 Gap=     0.145 Goal=   None    Shift=    0.000
 RMSDP=2.63D-05 MaxDP=4.25D-03 DE=-8.07D-03 OVMax= 7.98D-03

 Cycle   6  Pass 1  IDiag  1:
 RMSU=  2.49D-05    CP:  9.82D-01  1.15D+00  9.45D-01  7.49D-01  8.95D-01
 E= -2799.48612202131     Delta-E=       -0.000882315950 Rises=F Damp=F
 DIIS: error= 2.10D-04 at cycle   6 NSaved=   6.
 NSaved= 6 IEnMin= 6 EnMin= -2799.48612202131     IErMin= 6 ErrMin= 2.10D-04
 ErrMax= 2.10D-04  0.00D+00 EMaxC= 1.00D-01 BMatC= 5.99D-05 BMatP= 1.02D-03
 IDIUse=3 WtCom= 9.98D-01 WtEn= 2.10D-03
 Coeff-Com: -0.755D-04-0.297D-02 0.197D-01 0.646D-01 0.219D+00 0.700D+00
 Coeff-En:   0.000D+00 0.000D+00 0.000D+00 0.000D+00 0.000D+00 0.100D+01
 Coeff:     -0.754D-04-0.296D-02 0.197D-01 0.645D-01 0.218D+00 0.701D+00
 Gap=     0.145 Goal=   None    Shift=    0.000
 RMSDP=1.16D-05 MaxDP=1.81D-03 DE=-8.82D-04 OVMax= 2.91D-03

 Cycle   7  Pass 1  IDiag  1:
 RMSU=  8.85D-06    CP:  9.82D-01  1.15D+00  9.47D-01  7.59D-01  1.00D+00
                    CP:  1.12D+00
 E= -2799.48619379137     Delta-E=       -0.000071770060 Rises=F Damp=F
 DIIS: error= 7.63D-05 at cycle   7 NSaved=   7.
 NSaved= 7 IEnMin= 7 EnMin= -2799.48619379137     IErMin= 7 ErrMin= 7.63D-05
 ErrMax= 7.63D-05  0.00D+00 EMaxC= 1.00D-01 BMatC= 1.09D-05 BMatP= 5.99D-05
 IDIUse=1 WtCom= 1.00D+00 WtEn= 0.00D+00
 Coeff-Com:  0.232D-02-0.590D-02-0.132D-01-0.242D-01-0.154D-02 0.299D+00
 Coeff-Com:  0.743D+00
 Coeff:      0.232D-02-0.590D-02-0.132D-01-0.242D-01-0.154D-02 0.299D+00
 Coeff:      0.743D+00
 Gap=     0.145 Goal=   None    Shift=    0.000
 RMSDP=5.95D-06 MaxDP=8.07D-04 DE=-7.18D-05 OVMax= 1.52D-03

 Cycle   8  Pass 1  IDiag  1:
 RMSU=  2.79D-06    CP:  9.83D-01  1.15D+00  9.49D-01  7.61D-01  1.05D+00
                    CP:  1.25D+00  1.29D+00
 E= -2799.48620950872     Delta-E=       -0.000015717356 Rises=F Damp=F
 DIIS: error= 2.26D-05 at cycle   8 NSaved=   8.
 NSaved= 8 IEnMin= 8 EnMin= -2799.48620950872     IErMin= 8 ErrMin= 2.26D-05
 ErrMax= 2.26D-05  0.00D+00 EMaxC= 1.00D-01 BMatC= 2.17D-06 BMatP= 1.09D-05
 IDIUse=1 WtCom= 1.00D+00 WtEn= 0.00D+00
 Coeff-Com:  0.117D-02-0.243D-02-0.930D-02-0.227D-01-0.399D-01 0.206D-01
 Coeff-Com:  0.356D+00 0.697D+00
 Coeff:      0.117D-02-0.243D-02-0.930D-02-0.227D-01-0.399D-01 0.206D-01
 Coeff:      0.356D+00 0.697D+00
 Gap=     0.145 Goal=   None    Shift=    0.000
 RMSDP=2.84D-06 MaxDP=4.09D-04 DE=-1.57D-05 OVMax= 6.78D-04

 Cycle   9  Pass 1  IDiag  1:
 RMSU=  1.53D-06    CP:  9.83D-01  1.15D+00  9.49D-01  7.61D-01  1.08D+00
                    CP:  1.31D+00  1.44D+00  1.08D+00
 E= -2799.48621273882     Delta-E=       -0.000003230096 Rises=F Damp=F
 DIIS: error= 9.31D-06 at cycle   9 NSaved=   9.
 NSaved= 9 IEnMin= 9 EnMin= -2799.48621273882     IErMin= 9 ErrMin= 9.31D-06
 ErrMax= 9.31D-06  0.00D+00 EMaxC= 1.00D-01 BMatC= 2.66D-07 BMatP= 2.17D-06
 IDIUse=1 WtCom= 1.00D+00 WtEn= 0.00D+00
 Coeff-Com:  0.201D-03-0.293D-03-0.206D-02-0.636D-02-0.163D-01-0.278D-01
 Coeff-Com:  0.506D-01 0.294D+00 0.708D+00
 Coeff:      0.201D-03-0.293D-03-0.206D-02-0.636D-02-0.163D-01-0.278D-01
 Coeff:      0.506D-01 0.294D+00 0.708D+00
 Gap=     0.145 Goal=   None    Shift=    0.000
 RMSDP=1.02D-06 MaxDP=1.41D-04 DE=-3.23D-06 OVMax= 2.96D-04

 Cycle  10  Pass 1  IDiag  1:
 RMSU=  5.32D-07    CP:  9.83D-01  1.16D+00  9.49D-01  7.61D-01  1.08D+00
                    CP:  1.33D+00  1.50D+00  1.26D+00  1.06D+00
 E= -2799.48621313034     Delta-E=       -0.000000391517 Rises=F Damp=F
 DIIS: error= 3.51D-06 at cycle  10 NSaved=  10.
 NSaved=10 IEnMin=10 EnMin= -2799.48621313034     IErMin=10 ErrMin= 3.51D-06
 ErrMax= 3.51D-06  0.00D+00 EMaxC= 1.00D-01 BMatC= 5.89D-08 BMatP= 2.66D-07
 IDIUse=1 WtCom= 1.00D+00 WtEn= 0.00D+00
 Coeff-Com: -0.114D-03 0.301D-03 0.758D-03 0.111D-02-0.941D-03-0.183D-01
 Coeff-Com: -0.423D-01 0.162D-01 0.350D+00 0.693D+00
 Coeff:     -0.114D-03 0.301D-03 0.758D-03 0.111D-02-0.941D-03-0.183D-01
 Coeff:     -0.423D-01 0.162D-01 0.350D+00 0.693D+00
 Gap=     0.145 Goal=   None    Shift=    0.000
 RMSDP=4.37D-07 MaxDP=5.97D-05 DE=-3.92D-07 OVMax= 1.00D-04

 Cycle  11  Pass 1  IDiag  1:
 RMSU=  2.31D-07    CP:  9.83D-01  1.16D+00  9.50D-01  7.61D-01  1.08D+00
                    CP:  1.33D+00  1.52D+00  1.30D+00  1.20D+00  1.06D+00
 E= -2799.48621321428     Delta-E=       -0.000000083943 Rises=F Damp=F
 DIIS: error= 1.78D-06 at cycle  11 NSaved=  11.
 NSaved=11 IEnMin=11 EnMin= -2799.48621321428     IErMin=11 ErrMin= 1.78D-06
 ErrMax= 1.78D-06  0.00D+00 EMaxC= 1.00D-01 BMatC= 7.01D-09 BMatP= 5.89D-08
 IDIUse=1 WtCom= 1.00D+00 WtEn= 0.00D+00
 Coeff-Com: -0.751D-04 0.170D-03 0.641D-03 0.141D-02 0.167D-02-0.467D-02
 Coeff-Com: -0.251D-01-0.321D-01 0.533D-01 0.312D+00 0.693D+00
 Coeff:     -0.751D-04 0.170D-03 0.641D-03 0.141D-02 0.167D-02-0.467D-02
 Coeff:     -0.251D-01-0.321D-01 0.533D-01 0.312D+00 0.693D+00
 Gap=     0.145 Goal=   None    Shift=    0.000
 RMSDP=1.46D-07 MaxDP=2.20D-05 DE=-8.39D-08 OVMax= 4.54D-05

 Cycle  12  Pass 1  IDiag  1:
 RMSU=  9.10D-08    CP:  9.83D-01  1.16D+00  9.50D-01  7.61D-01  1.08D+00
                    CP:  1.33D+00  1.52D+00  1.32D+00  1.23D+00  1.20D+00
                    CP:  9.15D-01
 E= -2799.48621322413     Delta-E=       -0.000000009853 Rises=F Damp=F
 DIIS: error= 4.37D-07 at cycle  12 NSaved=  12.
 NSaved=12 IEnMin=12 EnMin= -2799.48621322413     IErMin=12 ErrMin= 4.37D-07
 ErrMax= 4.37D-07  0.00D+00 EMaxC= 1.00D-01 BMatC= 1.17D-09 BMatP= 7.01D-09
 IDIUse=1 WtCom= 1.00D+00 WtEn= 0.00D+00
 Coeff-Com: -0.216D-04 0.438D-04 0.223D-03 0.566D-03 0.888D-03-0.328D-03
 Coeff-Com: -0.740D-02-0.178D-01-0.152D-01 0.748D-01 0.351D+00 0.613D+00
 Coeff:     -0.216D-04 0.438D-04 0.223D-03 0.566D-03 0.888D-03-0.328D-03
 Coeff:     -0.740D-02-0.178D-01-0.152D-01 0.748D-01 0.351D+00 0.613D+00
 Gap=     0.145 Goal=   None    Shift=    0.000
 RMSDP=4.65D-08 MaxDP=6.23D-06 DE=-9.85D-09 OVMax= 1.20D-05

 Cycle  13  Pass 1  IDiag  1:
 RMSU=  3.02D-08    CP:  9.83D-01  1.16D+00  9.50D-01  7.61D-01  1.08D+00
                    CP:  1.33D+00  1.52D+00  1.32D+00  1.24D+00  1.23D+00
                    CP:  1.02D+00  9.41D-01
 E= -2799.48621322468     Delta-E=       -0.000000000548 Rises=F Damp=F
 DIIS: error= 1.66D-07 at cycle  13 NSaved=  13.
 NSaved=13 IEnMin=13 EnMin= -2799.48621322468     IErMin=13 ErrMin= 1.66D-07
 ErrMax= 1.66D-07  0.00D+00 EMaxC= 1.00D-01 BMatC= 1.08D-10 BMatP= 1.17D-09
 IDIUse=1 WtCom= 1.00D+00 WtEn= 0.00D+00
 Coeff-Com:  0.200D-05-0.616D-05 0.107D-05 0.396D-04 0.137D-03 0.530D-03
 Coeff-Com:  0.492D-03-0.309D-02-0.151D-01-0.139D-01 0.537D-01 0.258D+00
 Coeff-Com:  0.719D+00
 Coeff:      0.200D-05-0.616D-05 0.107D-05 0.396D-04 0.137D-03 0.530D-03
 Coeff:      0.492D-03-0.309D-02-0.151D-01-0.139D-01 0.537D-01 0.258D+00
 Coeff:      0.719D+00
 Gap=     0.145 Goal=   None    Shift=    0.000
 RMSDP=1.99D-08 MaxDP=3.27D-06 DE=-5.48D-10 OVMax= 5.78D-06

 Cycle  14  Pass 1  IDiag  1:
 RMSU=  1.18D-08    CP:  9.83D-01  1.16D+00  9.50D-01  7.61D-01  1.08D+00
                    CP:  1.33D+00  1.52D+00  1.32D+00  1.24D+00  1.24D+00
                    CP:  1.04D+00  1.07D+00  1.08D+00
 E= -2799.48621322506     Delta-E=       -0.000000000378 Rises=F Damp=F
 DIIS: error= 5.23D-08 at cycle  14 NSaved=  14.
 NSaved=14 IEnMin=14 EnMin= -2799.48621322506     IErMin=14 ErrMin= 5.23D-08
 ErrMax= 5.23D-08  0.00D+00 EMaxC= 1.00D-01 BMatC= 1.59D-11 BMatP= 1.08D-10
 IDIUse=1 WtCom= 1.00D+00 WtEn= 0.00D+00
 Coeff-Com:  0.310D-05-0.706D-05-0.260D-04-0.498D-04-0.498D-04 0.237D-03
 Coeff-Com:  0.108D-02 0.897D-03-0.392D-02-0.147D-01-0.204D-01 0.264D-01
 Coeff-Com:  0.303D+00 0.707D+00
 Coeff:      0.310D-05-0.706D-05-0.260D-04-0.498D-04-0.498D-04 0.237D-03
 Coeff:      0.108D-02 0.897D-03-0.392D-02-0.147D-01-0.204D-01 0.264D-01
 Coeff:      0.303D+00 0.707D+00
 Gap=     0.145 Goal=   None    Shift=    0.000
 RMSDP=7.51D-09 MaxDP=9.71D-07 DE=-3.78D-10 OVMax= 4.22D-06

 Error on total polarization charges =  0.02550
 SCF Done:  E(RM062X) =  -2799.48621323     A.U. after   14 cycles
            NFock= 14  Conv=0.75D-08     -V/T= 2.0043
 KE= 2.787546392363D+03 PE=-1.864483119594D+04 EE= 7.016242430740D+03
 Leave Link  502 at Thu Nov  6 18:26:30 2025, MaxMem= 30870077440 cpu:           63761.7 elap:            1013.4
 (Enter /public/software/gauss/g16/l601.exe)
 Copying SCF densities to generalized density rwf, IOpCl= 0 IROHF=0.

 **********************************************************************

            Population analysis using the SCF density.

 **********************************************************************

 Orbital symmetries:
       Occupied  (A) (A) (A) (A) (A) (A) (A) (A) (A) (A) (A) (A)
                 (A) (A) (A) (A) (A) (A) (A) (A) (A) (A) (A) (A)
                 (A) (A) (A) (A) (A) (A) (A) (A) (A) (A) (A) (A)
                 (A) (A) (A) (A) (A) (A) (A) (A) (A) (A) (A) (A)
                 (A) (A) (A) (A) (A) (A) (A) (A) (A) (A) (A) (A)
                 (A) (A) (A) (A) (A) (A) (A) (A) (A) (A) (A) (A)
                 (A) (A) (A) (A) (A) (A) (A) (A) (A) (A) (A) (A)
                 (A) (A) (A) (A) (A) (A) (A) (A) (A) (A) (A) (A)
                 (A) (A) (A) (A) (A) (A) (A) (A) (A) (A) (A) (A)
                 (A) (A) (A) (A) (A) (A) (A) (A) (A) (A) (A) (A)
                 (A) (A) (A) (A) (A) (A) (A) (A) (A) (A) (A) (A)
                 (A) (A) (A) (A) (A) (A) (A) (A) (A) (A) (A) (A)
                 (A) (A) (A) (A) (A) (A) (A) (A) (A) (A) (A) (A)
                 (A) (A) (A) (A) (A) (A) (A) (A) (A) (A) (A) (A)
                 (A) (A) (A) (A) (A)
       Virtual   (A) (A) (A) (A) (A) (A) (A) (A) (A) (A) (A) (A)
                 (A) (A) (A) (A) (A) (A) (A) (A) (A) (A) (A) (A)
                 (A) (A) (A) (A) (A) (A) (A) (A) (A) (A) (A) (A)
                 (A) (A) (A) (A) (A) (A) (A) (A) (A) (A) (A) (A)
                 (A) (A) (A) (A) (A) (A) (A) (A) (A) (A) (A) (A)
                 (A) (A) (A) (A) (A) (A) (A) (A) (A) (A) (A) (A)
                 (A) (A) (A) (A) (A) (A) (A) (A) (A) (A) (A) (A)
                 (A) (A) (A) (A) (A) (A) (A) (A) (A) (A) (A) (A)
                 (A) (A) (A) (A) (A) (A) (A) (A) (A) (A) (A) (A)
                 (A) (A) (A) (A) (A) (A) (A) (A) (A) (A) (A) (A)
                 (A) (A) (A) (A) (A) (A) (A) (A) (A) (A) (A) (A)
                 (A) (A) (A) (A) (A) (A) (A) (A) (A) (A) (A) (A)
                 (A) (A) (A) (A) (A) (A) (A) (A) (A) (A) (A) (A)
                 (A) (A) (A) (A) (A) (A) (A) (A) (A) (A) (A) (A)
                 (A) (A) (A) (A) (A) (A) (A) (A) (A) (A) (A) (A)
                 (A) (A) (A) (A) (A) (A) (A) (A) (A) (A) (A) (A)
                 (A) (A) (A) (A) (A) (A) (A) (A) (A) (A) (A) (A)
                 (A) (A) (A) (A) (A) (A) (A) (A) (A) (A) (A) (A)
                 (A) (A) (A) (A) (A) (A) (A) (A) (A) (A) (A) (A)
                 (A) (A) (A) (A) (A) (A) (A) (A) (A) (A) (A) (A)
                 (A) (A) (A) (A) (A) (A) (A) (A) (A) (A) (A) (A)
                 (A) (A) (A) (A) (A) (A) (A) (A) (A) (A) (A) (A)
                 (A) (A) (A) (A) (A) (A) (A) (A) (A) (A) (A) (A)
                 (A) (A) (A) (A) (A) (A) (A) (A) (A) (A) (A) (A)
                 (A) (A) (A) (A) (A) (A) (A) (A) (A) (A) (A) (A)
                 (A) (A) (A) (A) (A) (A) (A) (A) (A) (A) (A) (A)
                 (A) (A) (A) (A) (A) (A) (A) (A) (A) (A) (A) (A)
                 (A) (A) (A) (A) (A) (A) (A) (A) (A) (A) (A) (A)
                 (A) (A) (A) (A) (A) (A) (A) (A) (A) (A) (A) (A)
                 (A) (A) (A) (A) (A) (A) (A) (A) (A) (A) (A) (A)
                 (A) (A) (A) (A) (A) (A) (A) (A) (A) (A) (A) (A)
                 (A) (A) (A) (A) (A) (A) (A) (A) (A) (A) (A) (A)
                 (A) (A) (A) (A) (A) (A) (A) (A) (A) (A) (A) (A)
                 (A) (A) (A) (A) (A) (A) (A) (A) (A) (A) (A) (A)
                 (A) (A) (A) (A) (A) (A) (A) (A) (A) (A) (A) (A)
                 (A) (A) (A) (A) (A) (A) (A) (A) (A) (A) (A) (A)
                 (A) (A) (A) (A) (A) (A) (A) (A) (A) (A) (A) (A)
                 (A) (A) (A) (A) (A) (A) (A) (A) (A) (A) (A) (A)
                 (A) (A) (A) (A) (A) (A) (A) (A) (A) (A) (A) (A)
                 (A) (A) (A) (A) (A) (A) (A) (A) (A) (A) (A) (A)
                 (A) (A) (A) (A) (A) (A) (A) (A) (A) (A) (A) (A)
                 (A) (A) (A) (A) (A) (A) (A) (A) (A) (A) (A) (A)
                 (A) (A) (A) (A) (A) (A) (A) (A) (A) (A) (A) (A)
                 (A) (A) (A) (A) (A) (A) (A) (A) (A) (A) (A) (A)
                 (A) (A) (A) (A) (A) (A) (A) (A) (A) (A) (A) (A)
                 (A) (A) (A) (A) (A) (A) (A) (A) (A) (A) (A) (A)
                 (A) (A) (A) (A) (A) (A) (A) (A) (A) (A) (A) (A)
                 (A) (A) (A) (A) (A) (A) (A) (A) (A) (A) (A) (A)
                 (A) (A) (A) (A) (A) (A) (A) (A) (A) (A) (A) (A)
                 (A) (A) (A) (A) (A) (A) (A) (A) (A) (A) (A) (A)
                 (A) (A) (A) (A) (A) (A) (A) (A) (A) (A) (A) (A)
                 (A) (A) (A) (A) (A) (A) (A) (A) (A) (A) (A) (A)
                 (A) (A) (A) (A) (A) (A) (A) (A) (A) (A) (A) (A)
                 (A) (A) (A) (A) (A) (A) (A) (A) (A) (A) (A) (A)
                 (A) (A) (A) (A) (A) (A) (A) (A) (A) (A) (A) (A)
                 (A) (A) (A) (A) (A) (A) (A) (A) (A) (A) (A) (A)
                 (A) (A) (A) (A) (A) (A) (A) (A) (A) (A) (A) (A)
                 (A) (A) (A) (A) (A) (A) (A) (A) (A) (A) (A) (A)
                 (A) (A) (A) (A) (A) (A) (A) (A) (A) (A) (A) (A)
                 (A) (A) (A) (A) (A) (A) (A) (A) (A) (A) (A) (A)
                 (A) (A) (A) (A) (A) (A) (A) (A) (A) (A) (A) (A)
                 (A) (A) (A) (A) (A) (A) (A) (A) (A) (A) (A) (A)
                 (A) (A) (A) (A) (A) (A) (A) (A) (A) (A) (A) (A)
                 (A) (A) (A) (A) (A) (A) (A) (A) (A) (A) (A) (A)
                 (A) (A) (A) (A) (A) (A) (A) (A) (A) (A) (A) (A)
                 (A) (A) (A) (A) (A) (A) (A) (A) (A) (A) (A) (A)
                 (A) (A) (A) (A) (A) (A) (A) (A) (A) (A) (A) (A)
                 (A) (A) (A) (A) (A) (A) (A) (A) (A) (A) (A) (A)
                 (A) (A) (A) (A) (A) (A) (A) (A) (A) (A) (A) (A)
                 (A) (A) (A) (A) (A) (A) (A) (A) (A) (A) (A) (A)
                 (A) (A) (A) (A) (A) (A) (A) (A) (A) (A) (A) (A)
                 (A) (A) (A) (A) (A) (A) (A) (A) (A) (A) (A) (A)
                 (A) (A) (A) (A) (A) (A) (A) (A) (A) (A) (A) (A)
                 (A) (A) (A) (A) (A) (A) (A) (A) (A) (A) (A) (A)
                 (A) (A) (A) (A) (A) (A) (A) (A) (A) (A) (A) (A)
                 (A) (A) (A) (A) (A) (A) (A) (A) (A) (A) (A) (A)
                 (A) (A) (A) (A) (A) (A) (A) (A) (A) (A) (A) (A)
                 (A) (A) (A) (A) (A) (A) (A) (A) (A) (A) (A) (A)
                 (A) (A) (A) (A) (A) (A) (A) (A) (A) (A) (A) (A)
                 (A) (A) (A) (A) (A) (A) (A) (A) (A) (A) (A) (A)
                 (A) (A) (A) (A) (A) (A) (A) (A) (A) (A) (A) (A)
                 (A) (A) (A) (A) (A) (A) (A) (A) (A) (A) (A) (A)
                 (A) (A) (A) (A) (A) (A) (A) (A) (A) (A) (A) (A)
                 (A) (A) (A) (A) (A) (A) (A) (A) (A) (A) (A) (A)
                 (A) (A) (A) (A) (A) (A) (A) (A) (A) (A) (A) (A)
                 (A) (A) (A) (A) (A) (A) (A) (A) (A) (A) (A) (A)
                 (A) (A) (A) (A) (A) (A) (A) (A) (A) (A) (A) (A)
                 (A) (A) (A) (A) (A) (A) (A) (A) (A) (A) (A) (A)
                 (A) (A) (A) (A) (A) (A) (A) (A) (A) (A) (A) (A)
                 (A) (A) (A) (A) (A) (A) (A) (A) (A) (A) (A) (A)
                 (A) (A) (A) (A) (A) (A) (A) (A) (A) (A) (A) (A)
                 (A) (A) (A) (A) (A) (A) (A) (A) (A) (A) (A) (A)
                 (A) (A) (A) (A) (A) (A) (A) (A) (A) (A) (A) (A)
                 (A) (A) (A) (A) (A) (A) (A) (A) (A) (A) (A) (A)
                 (A) (A) (A) (A) (A) (A) (A) (A) (A) (A) (A) (A)
                 (A) (A) (A) (A) (A) (A) (A) (A) (A) (A) (A) (A)
                 (A) (A) (A) (A) (A) (A) (A) (A) (A) (A) (A) (A)
                 (A) (A) (A) (A) (A) (A) (A) (A) (A) (A) (A) (A)
                 (A) (A) (A) (A) (A) (A) (A) (A) (A) (A) (A) (A)
                 (A) (A) (A) (A) (A) (A) (A) (A) (A) (A) (A) (A)
                 (A) (A) (A) (A) (A) (A) (A) (A) (A) (A) (A) (A)
                 (A) (A) (A) (A) (A) (A) (A) (A) (A) (A) (A) (A)
                 (A) (A) (A) (A) (A) (A) (A) (A) (A) (A) (A) (A)
                 (A) (A) (A) (A) (A) (A) (A) (A) (A) (A) (A) (A)
                 (A) (A) (A) (A) (A) (A) (A) (A) (A) (A) (A) (A)
                 (A) (A) (A) (A) (A) (A) (A) (A) (A) (A) (A) (A)
                 (A) (A) (A) (A) (A) (A) (A) (A) (A) (A) (A) (A)
                 (A) (A) (A) (A) (A) (A) (A) (A) (A) (A) (A) (A)
                 (A) (A) (A) (A) (A) (A) (A) (A) (A) (A) (A) (A)
                 (A) (A) (A) (A) (A) (A) (A) (A) (A) (A) (A) (A)
                 (A) (A) (A) (A) (A) (A) (A) (A) (A) (A) (A) (A)
                 (A) (A) (A) (A) (A) (A) (A) (A) (A) (A) (A) (A)
                 (A) (A) (A) (A) (A) (A) (A) (A) (A) (A) (A) (A)
                 (A) (A) (A) (A) (A) (A) (A) (A) (A) (A) (A) (A)
                 (A) (A) (A) (A) (A) (A) (A) (A) (A) (A) (A) (A)
                 (A) (A) (A) (A) (A) (A) (A) (A) (A) (A) (A) (A)
                 (A) (A) (A) (A) (A) (A) (A) (A) (A) (A) (A) (A)
                 (A) (A) (A) (A) (A) (A) (A) (A) (A) (A) (A) (A)
                 (A) (A) (A) (A) (A) (A) (A) (A) (A) (A) (A) (A)
                 (A) (A) (A) (A) (A) (A) (A) (A) (A) (A) (A) (A)
                 (A) (A) (A) (A) (A) (A) (A) (A) (A) (A) (A) (A)
                 (A) (A) (A) (A) (A) (A) (A) (A) (A) (A) (A) (A)
                 (A) (A) (A) (A) (A) (A) (A) (A) (A) (A) (A) (A)
                 (A) (A) (A) (A) (A) (A) (A) (A) (A) (A) (A) (A)
                 (A) (A) (A) (A) (A) (A) (A) (A) (A) (A) (A) (A)
                 (A) (A) (A) (A) (A) (A) (A) (A) (A) (A) (A) (A)
                 (A) (A) (A) (A) (A) (A) (A) (A) (A) (A) (A) (A)
                 (A) (A) (A) (A) (A) (A) (A) (A) (A) (A) (A) (A)
                 (A) (A) (A) (A) (A) (A) (A) (A) (A) (A) (A) (A)
                 (A) (A) (A) (A) (A) (A) (A) (A) (A) (A) (A) (A)
                 (A) (A) (A) (A) (A) (A) (A) (A) (A) (A) (A) (A)
                 (A) (A) (A) (A) (A) (A) (A) (A) (A) (A) (A) (A)
                 (A) (A) (A) (A) (A) (A) (A) (A) (A) (A) (A) (A)
                 (A) (A) (A) (A) (A) (A) (A) (A) (A) (A) (A) (A)
                 (A) (A) (A) (A) (A) (A) (A) (A) (A) (A) (A) (A)
                 (A) (A) (A) (A) (A) (A) (A) (A) (A) (A) (A) (A)
                 (A) (A) (A) (A) (A) (A) (A) (A) (A) (A) (A) (A)
                 (A) (A) (A) (A) (A) (A) (A) (A) (A) (A) (A) (A)
                 (A) (A) (A) (A) (A) (A) (A) (A) (A) (A) (A) (A)
                 (A) (A) (A) (A) (A) (A) (A) (A) (A) (A) (A) (A)
                 (A) (A) (A) (A) (A) (A) (A) (A) (A) (A) (A) (A)
                 (A) (A) (A) (A) (A) (A) (A) (A) (A)
 The electronic state is 1-A.
 Alpha  occ. eigenvalues --  -89.93614 -89.93600 -25.20897 -25.20896 -19.66685
 Alpha  occ. eigenvalues --  -19.66670 -14.79973 -14.79874 -14.77399 -10.61864
 Alpha  occ. eigenvalues --  -10.61857 -10.61821 -10.61748 -10.61719 -10.60550
 Alpha  occ. eigenvalues --  -10.60158 -10.59907 -10.59861 -10.59463 -10.59133
 Alpha  occ. eigenvalues --  -10.59118 -10.58781 -10.58722 -10.58123 -10.58119
 Alpha  occ. eigenvalues --  -10.57610 -10.57603 -10.57366 -10.57308 -10.57250
 Alpha  occ. eigenvalues --  -10.57126 -10.56722 -10.56646 -10.56588 -10.56562
 Alpha  occ. eigenvalues --  -10.56138 -10.56001 -10.55926 -10.55859 -10.55255
 Alpha  occ. eigenvalues --  -10.55184 -10.55099 -10.55064 -10.55040 -10.55017
 Alpha  occ. eigenvalues --  -10.54998 -10.54964  -8.29347  -8.29319  -7.14211
 Alpha  occ. eigenvalues --   -6.21253  -6.21223  -6.21074  -6.21044  -6.20935
 Alpha  occ. eigenvalues --   -6.20908  -1.32898  -1.29779  -1.19531  -1.19511
 Alpha  occ. eigenvalues --   -1.11829  -1.10024  -1.03431  -1.00247  -0.98750
 Alpha  occ. eigenvalues --   -0.98611  -0.97476  -0.97271  -0.94791  -0.91773
 Alpha  occ. eigenvalues --   -0.90559  -0.88883  -0.88862  -0.87730  -0.86438
 Alpha  occ. eigenvalues --   -0.85903  -0.85695  -0.83927  -0.82780  -0.82696
 Alpha  occ. eigenvalues --   -0.82573  -0.80953  -0.80716  -0.78539  -0.77026
 Alpha  occ. eigenvalues --   -0.73470  -0.72727  -0.71647  -0.71048  -0.70996
 Alpha  occ. eigenvalues --   -0.70027  -0.69368  -0.67947  -0.67280  -0.66695
 Alpha  occ. eigenvalues --   -0.65104  -0.64671  -0.63964  -0.63502  -0.62316
 Alpha  occ. eigenvalues --   -0.61922  -0.61303  -0.60580  -0.60095  -0.59781
 Alpha  occ. eigenvalues --   -0.59112  -0.58016  -0.57004  -0.56942  -0.56652
 Alpha  occ. eigenvalues --   -0.56215  -0.55921  -0.55382  -0.55274  -0.55248
 Alpha  occ. eigenvalues --   -0.54078  -0.53114  -0.52884  -0.52671  -0.52573
 Alpha  occ. eigenvalues --   -0.52066  -0.51728  -0.51621  -0.50892  -0.50404
 Alpha  occ. eigenvalues --   -0.50010  -0.49756  -0.49129  -0.48785  -0.48544
 Alpha  occ. eigenvalues --   -0.48253  -0.48102  -0.47676  -0.47524  -0.47050
 Alpha  occ. eigenvalues --   -0.46973  -0.46468  -0.46294  -0.46168  -0.45890
 Alpha  occ. eigenvalues --   -0.45672  -0.45417  -0.45117  -0.45103  -0.44650
 Alpha  occ. eigenvalues --   -0.44573  -0.44283  -0.43656  -0.43430  -0.43133
 Alpha  occ. eigenvalues --   -0.42812  -0.42351  -0.41422  -0.40860  -0.40562
 Alpha  occ. eigenvalues --   -0.40164  -0.40066  -0.39817  -0.39710  -0.37495
 Alpha  occ. eigenvalues --   -0.35352  -0.34913  -0.34038  -0.32811  -0.32507
 Alpha  occ. eigenvalues --   -0.32424  -0.31157  -0.31128  -0.30755  -0.29059
 Alpha  occ. eigenvalues --   -0.28830  -0.27789  -0.24779
 Alpha virt. eigenvalues --   -0.10241  -0.03663  -0.01251  -0.01074  -0.00779
 Alpha virt. eigenvalues --    0.00627   0.00754   0.01235   0.02051   0.04807
 Alpha virt. eigenvalues --    0.05680   0.05761   0.05863   0.06152   0.06643
 Alpha virt. eigenvalues --    0.06856   0.07123   0.07566   0.07993   0.08562
 Alpha virt. eigenvalues --    0.08592   0.08932   0.09195   0.09528   0.09654
 Alpha virt. eigenvalues --    0.09736   0.09958   0.10217   0.10510   0.10656
 Alpha virt. eigenvalues --    0.10907   0.11139   0.11463   0.11801   0.12133
 Alpha virt. eigenvalues --    0.12426   0.12469   0.12593   0.13241   0.13439
 Alpha virt. eigenvalues --    0.13686   0.14028   0.14189   0.14363   0.14640
 Alpha virt. eigenvalues --    0.14703   0.14986   0.15190   0.15533   0.15596
 Alpha virt. eigenvalues --    0.15942   0.16103   0.16400   0.16681   0.17010
 Alpha virt. eigenvalues --    0.17163   0.17598   0.17904   0.18072   0.18551
 Alpha virt. eigenvalues --    0.18740   0.19286   0.19606   0.19685   0.20010
 Alpha virt. eigenvalues --    0.20596   0.20944   0.21390   0.21559   0.21769
 Alpha virt. eigenvalues --    0.21824   0.22367   0.22459   0.22890   0.23038
 Alpha virt. eigenvalues --    0.23281   0.23366   0.23653   0.23741   0.23997
 Alpha virt. eigenvalues --    0.24085   0.24164   0.24254   0.24429   0.24600
 Alpha virt. eigenvalues --    0.24994   0.25113   0.25577   0.25632   0.25724
 Alpha virt. eigenvalues --    0.26177   0.26323   0.26462   0.26673   0.26774
 Alpha virt. eigenvalues --    0.27200   0.27443   0.27509   0.27748   0.27807
 Alpha virt. eigenvalues --    0.28043   0.28308   0.28470   0.28686   0.29068
 Alpha virt. eigenvalues --    0.29416   0.29489   0.29833   0.30332   0.30474
 Alpha virt. eigenvalues --    0.30814   0.30917   0.31226   0.31618   0.31726
 Alpha virt. eigenvalues --    0.31942   0.32282   0.32368   0.32607   0.32639
 Alpha virt. eigenvalues --    0.32858   0.33224   0.33542   0.33595   0.33931
 Alpha virt. eigenvalues --    0.34154   0.34541   0.34793   0.34933   0.35026
 Alpha virt. eigenvalues --    0.35374   0.35477   0.35687   0.35827   0.36037
 Alpha virt. eigenvalues --    0.36430   0.36727   0.36815   0.37002   0.37157
 Alpha virt. eigenvalues --    0.37364   0.37554   0.37876   0.38045   0.38174
 Alpha virt. eigenvalues --    0.38436   0.38686   0.38816   0.39184   0.39225
 Alpha virt. eigenvalues --    0.39496   0.39576   0.39688   0.39931   0.40070
 Alpha virt. eigenvalues --    0.40294   0.40384   0.40512   0.40773   0.40985
 Alpha virt. eigenvalues --    0.41193   0.41275   0.41685   0.42028   0.42165
 Alpha virt. eigenvalues --    0.42281   0.42459   0.42503   0.42620   0.42856
 Alpha virt. eigenvalues --    0.43340   0.43501   0.43818   0.43840   0.43961
 Alpha virt. eigenvalues --    0.43972   0.44412   0.44504   0.44757   0.44928
 Alpha virt. eigenvalues --    0.45171   0.45397   0.45687   0.45982   0.46079
 Alpha virt. eigenvalues --    0.46262   0.46580   0.46844   0.47029   0.47200
 Alpha virt. eigenvalues --    0.47340   0.47472   0.47652   0.47852   0.48178
 Alpha virt. eigenvalues --    0.48388   0.48608   0.49193   0.49293   0.49582
 Alpha virt. eigenvalues --    0.49661   0.49697   0.49811   0.49944   0.50082
 Alpha virt. eigenvalues --    0.50465   0.50566   0.50890   0.51205   0.51343
 Alpha virt. eigenvalues --    0.51487   0.51815   0.51929   0.52330   0.52624
 Alpha virt. eigenvalues --    0.52711   0.53109   0.53255   0.53463   0.53858
 Alpha virt. eigenvalues --    0.54196   0.54700   0.54922   0.55129   0.55355
 Alpha virt. eigenvalues --    0.55880   0.56127   0.56298   0.56673   0.56861
 Alpha virt. eigenvalues --    0.57405   0.57554   0.57721   0.58068   0.58280
 Alpha virt. eigenvalues --    0.58367   0.58835   0.59110   0.59239   0.59875
 Alpha virt. eigenvalues --    0.59985   0.60329   0.60699   0.60778   0.61090
 Alpha virt. eigenvalues --    0.61353   0.61592   0.61839   0.62500   0.62627
 Alpha virt. eigenvalues --    0.62859   0.63120   0.63319   0.63897   0.63974
 Alpha virt. eigenvalues --    0.64437   0.64554   0.64814   0.64975   0.65168
 Alpha virt. eigenvalues --    0.65269   0.65369   0.65857   0.66063   0.66217
 Alpha virt. eigenvalues --    0.66348   0.66548   0.66878   0.67334   0.67435
 Alpha virt. eigenvalues --    0.67829   0.67871   0.68104   0.68127   0.68598
 Alpha virt. eigenvalues --    0.68792   0.69004   0.69080   0.69383   0.69602
 Alpha virt. eigenvalues --    0.69774   0.70307   0.70510   0.70607   0.71071
 Alpha virt. eigenvalues --    0.71196   0.71485   0.71657   0.71911   0.72088
 Alpha virt. eigenvalues --    0.72350   0.72458   0.72593   0.72775   0.72940
 Alpha virt. eigenvalues --    0.73173   0.73387   0.73663   0.74130   0.74245
 Alpha virt. eigenvalues --    0.74797   0.75136   0.75484   0.75758   0.76020
 Alpha virt. eigenvalues --    0.76133   0.76479   0.76771   0.77027   0.77153
 Alpha virt. eigenvalues --    0.77317   0.77759   0.78289   0.78995   0.79270
 Alpha virt. eigenvalues --    0.79803   0.80580   0.80721   0.81038   0.81296
 Alpha virt. eigenvalues --    0.81490   0.82029   0.82222   0.82604   0.82797
 Alpha virt. eigenvalues --    0.83003   0.83258   0.83327   0.83704   0.84109
 Alpha virt. eigenvalues --    0.84216   0.84593   0.84753   0.84985   0.85175
 Alpha virt. eigenvalues --    0.85508   0.85954   0.86151   0.86281   0.86554
 Alpha virt. eigenvalues --    0.86876   0.87002   0.87564   0.88036   0.88440
 Alpha virt. eigenvalues --    0.88883   0.89070   0.89216   0.89574   0.89850
 Alpha virt. eigenvalues --    0.90014   0.90334   0.90368   0.91064   0.91294
 Alpha virt. eigenvalues --    0.91794   0.91950   0.92296   0.92403   0.92739
 Alpha virt. eigenvalues --    0.93365   0.93687   0.93937   0.94092   0.94251
 Alpha virt. eigenvalues --    0.94521   0.94724   0.95006   0.95618   0.95776
 Alpha virt. eigenvalues --    0.96205   0.96440   0.96608   0.96897   0.97174
 Alpha virt. eigenvalues --    0.97275   0.97634   0.97857   0.98312   0.98477
 Alpha virt. eigenvalues --    0.98841   0.99115   0.99251   0.99488   0.99766
 Alpha virt. eigenvalues --    1.00181   1.00406   1.00570   1.00763   1.01339
 Alpha virt. eigenvalues --    1.01486   1.01688   1.02064   1.02374   1.02409
 Alpha virt. eigenvalues --    1.02609   1.02814   1.03297   1.03683   1.03947
 Alpha virt. eigenvalues --    1.04365   1.04514   1.04784   1.04917   1.05330
 Alpha virt. eigenvalues --    1.05503   1.05786   1.06190   1.06526   1.06723
 Alpha virt. eigenvalues --    1.07286   1.07585   1.07617   1.08205   1.08395
 Alpha virt. eigenvalues --    1.08733   1.08924   1.09171   1.09587   1.10172
 Alpha virt. eigenvalues --    1.10359   1.10676   1.10858   1.10889   1.11205
 Alpha virt. eigenvalues --    1.11551   1.11771   1.11891   1.12499   1.13065
 Alpha virt. eigenvalues --    1.13163   1.13693   1.13922   1.14075   1.14448
 Alpha virt. eigenvalues --    1.14554   1.14776   1.15205   1.15613   1.16000
 Alpha virt. eigenvalues --    1.16292   1.16492   1.17047   1.17529   1.17845
 Alpha virt. eigenvalues --    1.18092   1.18515   1.18839   1.19091   1.19645
 Alpha virt. eigenvalues --    1.19709   1.19879   1.20633   1.20789   1.21091
 Alpha virt. eigenvalues --    1.21350   1.21751   1.22107   1.22254   1.22497
 Alpha virt. eigenvalues --    1.22887   1.23306   1.23542   1.23859   1.24057
 Alpha virt. eigenvalues --    1.24643   1.24995   1.25177   1.25438   1.25601
 Alpha virt. eigenvalues --    1.26252   1.26422   1.26690   1.27263   1.27570
 Alpha virt. eigenvalues --    1.27821   1.28158   1.28464   1.28781   1.28990
 Alpha virt. eigenvalues --    1.29264   1.29647   1.29985   1.30270   1.30768
 Alpha virt. eigenvalues --    1.30966   1.31150   1.31661   1.31973   1.32206
 Alpha virt. eigenvalues --    1.32488   1.32806   1.33122   1.33200   1.33749
 Alpha virt. eigenvalues --    1.33769   1.34401   1.34924   1.35123   1.35305
 Alpha virt. eigenvalues --    1.35938   1.36163   1.36428   1.36721   1.36884
 Alpha virt. eigenvalues --    1.37329   1.37919   1.38011   1.38348   1.38989
 Alpha virt. eigenvalues --    1.39403   1.39633   1.39791   1.40008   1.40219
 Alpha virt. eigenvalues --    1.40349   1.40610   1.40961   1.41175   1.41701
 Alpha virt. eigenvalues --    1.42127   1.42195   1.42493   1.42612   1.42789
 Alpha virt. eigenvalues --    1.43252   1.43663   1.44010   1.44410   1.44777
 Alpha virt. eigenvalues --    1.44861   1.45233   1.45252   1.45736   1.45991
 Alpha virt. eigenvalues --    1.46290   1.46669   1.46741   1.47111   1.47379
 Alpha virt. eigenvalues --    1.47618   1.48013   1.48212   1.48399   1.48871
 Alpha virt. eigenvalues --    1.49284   1.49443   1.49619   1.50106   1.50293
 Alpha virt. eigenvalues --    1.50576   1.50634   1.50804   1.50955   1.51376
 Alpha virt. eigenvalues --    1.52022   1.52311   1.52639   1.52869   1.53173
 Alpha virt. eigenvalues --    1.53818   1.53853   1.54735   1.54796   1.54854
 Alpha virt. eigenvalues --    1.55128   1.55710   1.56016   1.56100   1.56540
 Alpha virt. eigenvalues --    1.56802   1.56992   1.57225   1.57802   1.57907
 Alpha virt. eigenvalues --    1.58151   1.58339   1.58399   1.58663   1.58841
 Alpha virt. eigenvalues --    1.58993   1.59372   1.59750   1.59997   1.60274
 Alpha virt. eigenvalues --    1.60414   1.60540   1.61198   1.61298   1.61533
 Alpha virt. eigenvalues --    1.61985   1.62179   1.62569   1.62900   1.63187
 Alpha virt. eigenvalues --    1.63692   1.63982   1.64248   1.64783   1.65047
 Alpha virt. eigenvalues --    1.65723   1.66203   1.66386   1.66735   1.66992
 Alpha virt. eigenvalues --    1.67415   1.67577   1.68190   1.68278   1.68355
 Alpha virt. eigenvalues --    1.68980   1.69476   1.69992   1.70451   1.70585
 Alpha virt. eigenvalues --    1.71054   1.71369   1.71644   1.72342   1.72592
 Alpha virt. eigenvalues --    1.72881   1.73174   1.73410   1.73668   1.73866
 Alpha virt. eigenvalues --    1.74203   1.74564   1.74718   1.76194   1.76485
 Alpha virt. eigenvalues --    1.77183   1.77372   1.77846   1.78109   1.78463
 Alpha virt. eigenvalues --    1.78850   1.79414   1.79630   1.80075   1.80445
 Alpha virt. eigenvalues --    1.81020   1.81530   1.82080   1.82382   1.82927
 Alpha virt. eigenvalues --    1.83123   1.83677   1.83884   1.84174   1.84765
 Alpha virt. eigenvalues --    1.85270   1.85609   1.86048   1.86233   1.86426
 Alpha virt. eigenvalues --    1.86877   1.87645   1.88159   1.88192   1.88626
 Alpha virt. eigenvalues --    1.88684   1.89057   1.89490   1.89653   1.89897
 Alpha virt. eigenvalues --    1.90382   1.90502   1.90777   1.90897   1.91052
 Alpha virt. eigenvalues --    1.91648   1.91803   1.92098   1.92476   1.93069
 Alpha virt. eigenvalues --    1.93430   1.93744   1.94006   1.94212   1.94814
 Alpha virt. eigenvalues --    1.95095   1.95517   1.95784   1.96058   1.97189
 Alpha virt. eigenvalues --    1.97230   1.98051   1.98180   1.98455   1.98945
 Alpha virt. eigenvalues --    1.99909   2.00170   2.00785   2.01118   2.01452
 Alpha virt. eigenvalues --    2.01665   2.02311   2.02990   2.03067   2.03863
 Alpha virt. eigenvalues --    2.04130   2.05138   2.05635   2.05905   2.06350
 Alpha virt. eigenvalues --    2.06514   2.07124   2.07569   2.08142   2.08269
 Alpha virt. eigenvalues --    2.08679   2.09289   2.09428   2.10261   2.10442
 Alpha virt. eigenvalues --    2.11039   2.11311   2.11647   2.12228   2.12532
 Alpha virt. eigenvalues --    2.13026   2.13518   2.13816   2.14217   2.14415
 Alpha virt. eigenvalues --    2.14568   2.15303   2.15859   2.16241   2.16450
 Alpha virt. eigenvalues --    2.17061   2.17430   2.17940   2.18289   2.18753
 Alpha virt. eigenvalues --    2.19121   2.19395   2.20052   2.20270   2.20456
 Alpha virt. eigenvalues --    2.21344   2.21884   2.22195   2.22766   2.23232
 Alpha virt. eigenvalues --    2.23619   2.23836   2.24766   2.25077   2.25579
 Alpha virt. eigenvalues --    2.25782   2.26406   2.26631   2.27331   2.27843
 Alpha virt. eigenvalues --    2.28196   2.28288   2.28711   2.29033   2.30514
 Alpha virt. eigenvalues --    2.31231   2.32165   2.32390   2.32472   2.33299
 Alpha virt. eigenvalues --    2.33783   2.34088   2.34287   2.35483   2.35623
 Alpha virt. eigenvalues --    2.35901   2.36650   2.36779   2.37222   2.38041
 Alpha virt. eigenvalues --    2.38517   2.39438   2.39818   2.39968   2.40868
 Alpha virt. eigenvalues --    2.41157   2.41452   2.41792   2.42448   2.43080
 Alpha virt. eigenvalues --    2.43448   2.43677   2.43976   2.44888   2.45189
 Alpha virt. eigenvalues --    2.45557   2.46125   2.47404   2.47581   2.47903
 Alpha virt. eigenvalues --    2.48377   2.49390   2.49730   2.51533   2.52050
 Alpha virt. eigenvalues --    2.52582   2.53309   2.53524   2.54946   2.55276
 Alpha virt. eigenvalues --    2.55428   2.55672   2.56066   2.56237   2.56592
 Alpha virt. eigenvalues --    2.57951   2.58059   2.58077   2.58199   2.58818
 Alpha virt. eigenvalues --    2.59234   2.59802   2.60131   2.60315   2.60819
 Alpha virt. eigenvalues --    2.61582   2.62163   2.62837   2.63227   2.63714
 Alpha virt. eigenvalues --    2.64031   2.64476   2.65091   2.65535   2.65627
 Alpha virt. eigenvalues --    2.66925   2.66932   2.67505   2.67738   2.68247
 Alpha virt. eigenvalues --    2.68362   2.68929   2.69230   2.69840   2.69922
 Alpha virt. eigenvalues --    2.70381   2.70740   2.71398   2.71729   2.72045
 Alpha virt. eigenvalues --    2.72360   2.72584   2.72727   2.73156   2.73242
 Alpha virt. eigenvalues --    2.73768   2.74007   2.74447   2.74750   2.75390
 Alpha virt. eigenvalues --    2.75500   2.76023   2.76710   2.77121   2.77279
 Alpha virt. eigenvalues --    2.77466   2.77767   2.77863   2.78457   2.78797
 Alpha virt. eigenvalues --    2.79244   2.79557   2.80092   2.80261   2.80536
 Alpha virt. eigenvalues --    2.80719   2.81067   2.81179   2.81342   2.81769
 Alpha virt. eigenvalues --    2.81887   2.82557   2.83254   2.83537   2.83896
 Alpha virt. eigenvalues --    2.84094   2.84635   2.84778   2.85054   2.85570
 Alpha virt. eigenvalues --    2.85785   2.86064   2.86635   2.86966   2.87398
 Alpha virt. eigenvalues --    2.87538   2.87994   2.88333   2.88538   2.88705
 Alpha virt. eigenvalues --    2.89226   2.89606   2.89806   2.90191   2.90299
 Alpha virt. eigenvalues --    2.90793   2.90958   2.91211   2.91326   2.91743
 Alpha virt. eigenvalues --    2.91799   2.91976   2.92342   2.93031   2.93053
 Alpha virt. eigenvalues --    2.93447   2.93578   2.94114   2.94573   2.94904
 Alpha virt. eigenvalues --    2.95047   2.95253   2.95576   2.95712   2.96132
 Alpha virt. eigenvalues --    2.96180   2.96722   2.96887   2.97499   2.97575
 Alpha virt. eigenvalues --    2.97956   2.98111   2.98450   2.98950   2.99091
 Alpha virt. eigenvalues --    2.99355   2.99519   2.99693   3.00086   3.00245
 Alpha virt. eigenvalues --    3.00344   3.01064   3.01251   3.01517   3.01939
 Alpha virt. eigenvalues --    3.02075   3.02508   3.02769   3.02921   3.03053
 Alpha virt. eigenvalues --    3.03535   3.03628   3.03766   3.03860   3.04359
 Alpha virt. eigenvalues --    3.04449   3.04590   3.04922   3.05176   3.05277
 Alpha virt. eigenvalues --    3.05422   3.05609   3.06229   3.06736   3.07000
 Alpha virt. eigenvalues --    3.07133   3.07334   3.07775   3.07899   3.08306
 Alpha virt. eigenvalues --    3.08508   3.08887   3.09137   3.09585   3.09969
 Alpha virt. eigenvalues --    3.10261   3.10582   3.10826   3.11096   3.11203
 Alpha virt. eigenvalues --    3.11312   3.11635   3.11772   3.12000   3.12344
 Alpha virt. eigenvalues --    3.12508   3.12552   3.12682   3.12942   3.13038
 Alpha virt. eigenvalues --    3.13485   3.13642   3.14075   3.14194   3.14319
 Alpha virt. eigenvalues --    3.14447   3.14696   3.15067   3.15403   3.15494
 Alpha virt. eigenvalues --    3.15617   3.15717   3.16064   3.16441   3.16778
 Alpha virt. eigenvalues --    3.17123   3.17161   3.17744   3.18066   3.18256
 Alpha virt. eigenvalues --    3.18680   3.18832   3.19212   3.19436   3.19927
 Alpha virt. eigenvalues --    3.20284   3.20365   3.20565   3.20851   3.21184
 Alpha virt. eigenvalues --    3.21503   3.21644   3.21910   3.22132   3.22235
 Alpha virt. eigenvalues --    3.22719   3.23110   3.23319   3.23522   3.23823
 Alpha virt. eigenvalues --    3.23947   3.24365   3.24676   3.25055   3.25209
 Alpha virt. eigenvalues --    3.25517   3.25723   3.26015   3.26308   3.26457
 Alpha virt. eigenvalues --    3.26780   3.27215   3.27830   3.28041   3.28247
 Alpha virt. eigenvalues --    3.28464   3.28636   3.28748   3.29359   3.29498
 Alpha virt. eigenvalues --    3.29731   3.30015   3.30335   3.30360   3.30567
 Alpha virt. eigenvalues --    3.30841   3.31327   3.31559   3.31715   3.32256
 Alpha virt. eigenvalues --    3.32572   3.32736   3.32990   3.33160   3.33437
 Alpha virt. eigenvalues --    3.33740   3.33958   3.34240   3.34338   3.34688
 Alpha virt. eigenvalues --    3.35092   3.35278   3.35538   3.36124   3.36187
 Alpha virt. eigenvalues --    3.36370   3.36865   3.37168   3.37506   3.37625
 Alpha virt. eigenvalues --    3.37908   3.38286   3.38610   3.39068   3.39173
 Alpha virt. eigenvalues --    3.39461   3.39630   3.39931   3.40190   3.40569
 Alpha virt. eigenvalues --    3.40847   3.41135   3.41911   3.42017   3.42316
 Alpha virt. eigenvalues --    3.42664   3.43009   3.43392   3.44169   3.44349
 Alpha virt. eigenvalues --    3.44654   3.44689   3.45226   3.45253   3.45677
 Alpha virt. eigenvalues --    3.45761   3.46330   3.46406   3.46490   3.46733
 Alpha virt. eigenvalues --    3.47087   3.47306   3.47438   3.47632   3.48415
 Alpha virt. eigenvalues --    3.48763   3.48914   3.49365   3.49773   3.50009
 Alpha virt. eigenvalues --    3.50332   3.50584   3.50668   3.51180   3.51490
 Alpha virt. eigenvalues --    3.51953   3.52486   3.53067   3.53236   3.53371
 Alpha virt. eigenvalues --    3.53447   3.54030   3.54143   3.54689   3.54821
 Alpha virt. eigenvalues --    3.55113   3.55568   3.55977   3.56348   3.56749
 Alpha virt. eigenvalues --    3.57046   3.57306   3.57337   3.58342   3.58831
 Alpha virt. eigenvalues --    3.59058   3.59368   3.59740   3.60066   3.60623
 Alpha virt. eigenvalues --    3.60828   3.61334   3.61549   3.61864   3.62190
 Alpha virt. eigenvalues --    3.62753   3.63234   3.63254   3.63692   3.63847
 Alpha virt. eigenvalues --    3.64158   3.64245   3.64835   3.65233   3.65480
 Alpha virt. eigenvalues --    3.65795   3.65910   3.66224   3.66833   3.67000
 Alpha virt. eigenvalues --    3.67327   3.67593   3.68132   3.68462   3.68738
 Alpha virt. eigenvalues --    3.69093   3.69547   3.69698   3.70454   3.70634
 Alpha virt. eigenvalues --    3.70745   3.71129   3.71688   3.71750   3.72066
 Alpha virt. eigenvalues --    3.72417   3.72784   3.73080   3.73982   3.74170
 Alpha virt. eigenvalues --    3.74554   3.74696   3.75200   3.75669   3.75851
 Alpha virt. eigenvalues --    3.75989   3.76409   3.76632   3.77240   3.77532
 Alpha virt. eigenvalues --    3.77943   3.78181   3.78350   3.78593   3.78836
 Alpha virt. eigenvalues --    3.79314   3.79479   3.80062   3.80406   3.80672
 Alpha virt. eigenvalues --    3.80981   3.81357   3.81707   3.81929   3.81980
 Alpha virt. eigenvalues --    3.82523   3.82925   3.83273   3.83732   3.84025
 Alpha virt. eigenvalues --    3.84198   3.84766   3.85035   3.85370   3.85663
 Alpha virt. eigenvalues --    3.86156   3.86864   3.87036   3.87265   3.87383
 Alpha virt. eigenvalues --    3.87897   3.88242   3.88789   3.89187   3.89302
 Alpha virt. eigenvalues --    3.90074   3.90359   3.90591   3.91150   3.91436
 Alpha virt. eigenvalues --    3.91759   3.92172   3.92256   3.92483   3.93078
 Alpha virt. eigenvalues --    3.93685   3.94197   3.94327   3.95022   3.95286
 Alpha virt. eigenvalues --    3.95421   3.95710   3.95726   3.96050   3.96430
 Alpha virt. eigenvalues --    3.96710   3.97033   3.97745   3.97951   3.98450
 Alpha virt. eigenvalues --    3.98819   3.99641   3.99889   4.00254   4.00617
 Alpha virt. eigenvalues --    4.00954   4.01408   4.01712   4.02119   4.02573
 Alpha virt. eigenvalues --    4.03059   4.03514   4.04130   4.04346   4.04478
 Alpha virt. eigenvalues --    4.05002   4.05414   4.05684   4.06193   4.06621
 Alpha virt. eigenvalues --    4.06908   4.07062   4.07124   4.07508   4.08175
 Alpha virt. eigenvalues --    4.08420   4.08860   4.09103   4.09344   4.09547
 Alpha virt. eigenvalues --    4.10272   4.10621   4.11058   4.11359   4.11698
 Alpha virt. eigenvalues --    4.12068   4.12682   4.12992   4.13246   4.13445
 Alpha virt. eigenvalues --    4.14220   4.14418   4.14895   4.15171   4.15361
 Alpha virt. eigenvalues --    4.16015   4.16444   4.16471   4.16724   4.17453
 Alpha virt. eigenvalues --    4.17729   4.17978   4.18337   4.18996   4.19309
 Alpha virt. eigenvalues --    4.19640   4.19759   4.19991   4.20206   4.20363
 Alpha virt. eigenvalues --    4.20678   4.20970   4.21155   4.21837   4.22130
 Alpha virt. eigenvalues --    4.22278   4.22941   4.23126   4.23466   4.23757
 Alpha virt. eigenvalues --    4.23906   4.24236   4.24547   4.24868   4.25687
 Alpha virt. eigenvalues --    4.26055   4.26271   4.26672   4.27008   4.27280
 Alpha virt. eigenvalues --    4.27877   4.28023   4.28945   4.29525   4.30040
 Alpha virt. eigenvalues --    4.30326   4.31080   4.31629   4.31962   4.32257
 Alpha virt. eigenvalues --    4.32336   4.32959   4.33217   4.33914   4.34482
 Alpha virt. eigenvalues --    4.35109   4.35347   4.35872   4.36730   4.38179
 Alpha virt. eigenvalues --    4.38432   4.38623   4.39601   4.39944   4.40457
 Alpha virt. eigenvalues --    4.41048   4.41415   4.42154   4.42583   4.43467
 Alpha virt. eigenvalues --    4.43795   4.44224   4.44873   4.45849   4.46385
 Alpha virt. eigenvalues --    4.46785   4.46894   4.47640   4.47930   4.48294
 Alpha virt. eigenvalues --    4.48606   4.48859   4.49665   4.49926   4.50532
 Alpha virt. eigenvalues --    4.51627   4.51832   4.51941   4.52452   4.52683
 Alpha virt. eigenvalues --    4.53569   4.53753   4.54109   4.55029   4.55068
 Alpha virt. eigenvalues --    4.55410   4.56554   4.57553   4.57912   4.58373
 Alpha virt. eigenvalues --    4.58647   4.59435   4.59631   4.60516   4.60914
 Alpha virt. eigenvalues --    4.61889   4.62183   4.62711   4.63224   4.63912
 Alpha virt. eigenvalues --    4.64174   4.65828   4.65892   4.66423   4.66848
 Alpha virt. eigenvalues --    4.67190   4.67453   4.68431   4.68950   4.69286
 Alpha virt. eigenvalues --    4.69526   4.69726   4.70560   4.70904   4.71004
 Alpha virt. eigenvalues --    4.71482   4.71660   4.72010   4.72562   4.73191
 Alpha virt. eigenvalues --    4.74618   4.75386   4.75760   4.77490   4.77834
 Alpha virt. eigenvalues --    4.78175   4.79509   4.80711   4.80893   4.81922
 Alpha virt. eigenvalues --    4.82730   4.82856   4.83559   4.84234   4.84845
 Alpha virt. eigenvalues --    4.85562   4.85934   4.87603   4.88231   4.89337
 Alpha virt. eigenvalues --    4.89639   4.90473   4.91253   4.91557   4.92001
 Alpha virt. eigenvalues --    4.93077   4.93582   4.93814   4.94193   4.94397
 Alpha virt. eigenvalues --    4.94942   4.95616   4.96077   4.96380   4.96426
 Alpha virt. eigenvalues --    4.96606   4.96900   4.97276   4.97818   4.98102
 Alpha virt. eigenvalues --    4.98271   4.98546   4.98999   4.99639   5.00956
 Alpha virt. eigenvalues --    5.03578   5.03912   5.04954   5.06158   5.06670
 Alpha virt. eigenvalues --    5.06899   5.07401   5.07560   5.08329   5.08628
 Alpha virt. eigenvalues --    5.08892   5.09482   5.09879   5.10515   5.11207
 Alpha virt. eigenvalues --    5.11341   5.11884   5.12664   5.13346   5.13450
 Alpha virt. eigenvalues --    5.13822   5.14933   5.15313   5.15590   5.15967
 Alpha virt. eigenvalues --    5.16444   5.16788   5.16803   5.17625   5.18816
 Alpha virt. eigenvalues --    5.19218   5.20794   5.21249   5.21311   5.21561
 Alpha virt. eigenvalues --    5.23159   5.24251   5.25007   5.25494   5.26997
 Alpha virt. eigenvalues --    5.27548   5.27726   5.28365   5.28871   5.29129
 Alpha virt. eigenvalues --    5.29736   5.30443   5.30786   5.31683   5.32324
 Alpha virt. eigenvalues --    5.33260   5.33511   5.34343   5.34742   5.35029
 Alpha virt. eigenvalues --    5.35794   5.38305   5.39281   5.40518   5.40618
 Alpha virt. eigenvalues --    5.41040   5.41167   5.42882   5.44815   5.45976
 Alpha virt. eigenvalues --    5.47489   5.48261   5.48437   5.48937   5.49116
 Alpha virt. eigenvalues --    5.49216   5.49499   5.50044   5.53120   5.53316
 Alpha virt. eigenvalues --    5.53383   5.53783   5.54416   5.55882   5.56739
 Alpha virt. eigenvalues --    5.57400   5.59061   5.59663   5.60191   5.60547
 Alpha virt. eigenvalues --    5.61236   5.62374   5.62767   5.63809   5.64447
 Alpha virt. eigenvalues --    5.64877   5.65369   5.66394   5.66800   5.68308
 Alpha virt. eigenvalues --    5.69473   5.70454   5.71150   5.72675   5.73701
 Alpha virt. eigenvalues --    5.75852   5.76908   5.78393   5.78774   5.81534
 Alpha virt. eigenvalues --    5.84259   5.84337   5.85586   5.85766   5.93999
 Alpha virt. eigenvalues --    5.96152   5.97580   6.00596   6.01638   6.01905
 Alpha virt. eigenvalues --    6.02007   6.02027   6.03282   6.07560   6.09463
 Alpha virt. eigenvalues --    6.10624   6.15874   6.17207   6.19767   6.20692
 Alpha virt. eigenvalues --    6.27237   6.29046   6.36452   6.41676   6.41748
 Alpha virt. eigenvalues --    6.47290   6.69523   6.69561   6.72218   6.72375
 Alpha virt. eigenvalues --    6.82870   6.82940   6.85275   6.86238   6.86949
 Alpha virt. eigenvalues --    6.89588   6.91211   6.91332   6.93776   6.94252
 Alpha virt. eigenvalues --    6.95711   6.96968   6.97548   6.98372   6.99109
 Alpha virt. eigenvalues --    6.99883   7.05326   7.05761   7.07216   7.11181
 Alpha virt. eigenvalues --    7.16525   7.21812   7.24258   7.26863   7.27277
 Alpha virt. eigenvalues --    7.27350   7.33626   7.34675   7.44212   7.44261
 Alpha virt. eigenvalues --    7.44521   7.44892   8.44691   8.47588   8.55689
 Alpha virt. eigenvalues --    8.58378   8.84299   8.87706   8.92166   8.92892
 Alpha virt. eigenvalues --    8.94016   8.97020   8.99207   9.00458   9.52081
 Alpha virt. eigenvalues --    9.52922   9.56475   9.57636  15.84413  20.35813
 Alpha virt. eigenvalues --   20.37453  22.65058  22.69013  22.80440  22.86578
 Alpha virt. eigenvalues --   22.87246  22.95156  22.96903  23.03702  23.05187
 Alpha virt. eigenvalues --   23.10681  23.14909  23.15181  23.16639  23.22214
 Alpha virt. eigenvalues --   23.22983  23.26738  23.27260  23.27889  23.28743
 Alpha virt. eigenvalues --   23.28907  23.30529  23.32711  23.37025  23.37279
 Alpha virt. eigenvalues --   23.40213  23.45171  23.50293  23.53968  23.56416
 Alpha virt. eigenvalues --   23.60244  23.64365  23.64425  23.67801  23.80304
 Alpha virt. eigenvalues --   23.86482  24.12767  24.13614  24.23011  32.19686
 Alpha virt. eigenvalues --   33.10410  33.28707  44.49388  44.49548  57.40881
 Alpha virt. eigenvalues --   57.60346
          Condensed to atoms (all electrons):
 Mulliken charges:
               1
     1  C   -0.249615
     2  O   -0.301939
     3  C    0.232443
     4  C   -0.169177
     5  C   -0.181687
     6  C   -0.205359
     7  C    0.139481
     8  C    0.111955
     9  C   -0.154283
    10  C   -0.175657
    11  C   -0.189357
    12  C   -0.217962
    13  S    0.064386
    14  C   -0.053136
    15  C   -0.029567
    16  C    0.221281
    17  C   -0.094501
    18  C   -0.187066
    19  C   -0.103472
    20  C    0.106640
    21  C   -0.194227
    22  N   -0.071315
    23  C   -0.103573
    24  C   -0.187725
    25  C   -0.051368
    26  C   -0.023274
    27  C    0.078387
    28  C   -0.124854
    29  C   -0.201737
    30  C   -0.165636
    31  C   -0.225361
    32  S    0.059405
    33  C    0.162474
    34  C   -0.212732
    35  C   -0.137733
    36  C   -0.173400
    37  C    0.226270
    38  O   -0.302551
    39  C   -0.249356
    40  C   -0.166194
    41  C   -0.161492
    42  N   -0.083046
    43  B    0.401316
    44  F   -0.339157
    45  F   -0.339112
    46  N   -0.085879
    47  C   -0.102158
    48  C   -0.185832
    49  H    0.148705
    50  H    0.149507
    51  H    0.148635
    52  H    0.157630
    53  H    0.174945
    54  H    0.165436
    55  H    0.163680
    56  H    0.176557
    57  H    0.223153
    58  H    0.196175
    59  H    0.175092
    60  H    0.175050
    61  H    0.196387
    62  H    0.224910
    63  H    0.173032
    64  H    0.164121
    65  H    0.178013
    66  H    0.157668
    67  H    0.157777
    68  H    0.147830
    69  H    0.149435
    70  H    0.149256
    71  H    0.159774
    72  H    0.167281
    73  H    0.157038
    74  H    0.159360
 Sum of Mulliken charges =  -0.00000
 Mulliken charges with hydrogens summed into heavy atoms:
               1
     1  C    0.197233
     2  O   -0.301939
     3  C    0.232443
     4  C   -0.011547
     5  C   -0.006742
     6  C   -0.205359
     7  C    0.139481
     8  C    0.111955
     9  C   -0.154283
    10  C   -0.010220
    11  C   -0.025677
    12  C   -0.041405
    13  S    0.064386
    14  C    0.170017
    15  C   -0.029567
    16  C    0.221281
    17  C   -0.094501
    18  C    0.009109
    19  C    0.071620
    20  C    0.106640
    21  C   -0.194227
    22  N   -0.071315
    23  C    0.071477
    24  C    0.008662
    25  C   -0.051368
    26  C    0.201636
    27  C    0.078387
    28  C   -0.124854
    29  C   -0.028705
    30  C   -0.001515
    31  C   -0.047348
    32  S    0.059405
    33  C    0.162474
    34  C   -0.212732
    35  C    0.019935
    36  C   -0.015624
    37  C    0.226270
    38  O   -0.302551
    39  C    0.197165
    40  C   -0.006420
    41  C    0.005789
    42  N   -0.083046
    43  B    0.401316
    44  F   -0.339157
    45  F   -0.339112
    46  N   -0.085879
    47  C    0.054880
    48  C   -0.026472
 Electronic spatial extent (au):  <R**2>=          36340.4332
 Charge=             -0.0000 electrons
 Dipole moment (field-independent basis, Debye):
    X=              1.9220    Y=             -2.9644    Z=              3.6199  Tot=              5.0582
 Quadrupole moment (field-independent basis, Debye-Ang):
   XX=           -238.1769   YY=           -311.3618   ZZ=           -281.9548
   XY=              8.6832   XZ=              5.5401   YZ=            -18.0770
 Traceless Quadrupole moment (field-independent basis, Debye-Ang):
   XX=             38.9876   YY=            -34.1973   ZZ=             -4.7903
   XY=              8.6832   XZ=              5.5401   YZ=            -18.0770
 Octapole moment (field-independent basis, Debye-Ang**2):
  XXX=            134.8350  YYY=          -1073.1382  ZZZ=              2.7405  XYY=            176.1377
  XXY=           -102.4672  XXZ=             73.5740  XZZ=              8.8150  YZZ=            -27.7147
  YYZ=             83.6177  XYZ=            -12.0626
 Hexadecapole moment (field-independent basis, Debye-Ang**3):
 XXXX=         -22793.7327 YYYY=         -28353.3787 ZZZZ=          -1203.3114 XXXY=           -423.1317
 XXXZ=            399.7232 YYYX=           1383.3434 YYYZ=           -955.6744 ZZZX=             24.5710
 ZZZY=             -1.3019 XXYY=          -7474.9031 XXZZ=          -4667.7027 YYZZ=          -3636.1057
 XXYZ=           -327.5520 YYXZ=             38.2793 ZZXY=            -50.5256
 N-N= 6.041556159610D+03 E-N=-1.864483120421D+04  KE= 2.787546392363D+03
 No NMR shielding tensors so no spin-rotation constants.
 Leave Link  601 at Thu Nov  6 18:26:32 2025, MaxMem= 30870077440 cpu:             124.1 elap:               2.3
 (Enter /public/software/gauss/g16/l9999.exe)
 1\1\GINC-CU015\SP\RM062X\def2TZVPP\C38H26B1F2N3O2S2\BAIDING\06-Nov-202
 5\0\\#p M062X/DEF2TZVPP scrf=(solvent=water) em=GD3\\Energy calculatio
 n for M100033922\\0,1\C,0,-5.984669,-5.312424,-0.884968\O,0,-5.077647,
 -4.927017,0.154249\C,0,-4.496874,-3.692253,0.077895\C,0,-4.734882,-2.7
 67521,-0.947232\C,0,-4.088839,-1.53303,-0.918866\C,0,-3.187542,-1.2001
 21,0.104857\C,0,-2.538672,0.122352,0.092511\C,0,-3.187373,1.394312,0.0
 04554\C,0,-4.617334,1.69458,-0.007022\C,0,-5.234819,2.724773,-0.681147
 \C,0,-6.631737,2.828869,-0.416551\C,0,-7.077116,1.882833,0.464827\S,0,
 -5.79013,0.841442,0.987248\C,0,-2.177602,2.353689,-0.045807\C,0,-0.940
 395,1.679741,0.017144\C,0,0.367508,2.184791,-0.064186\C,0,0.590833,3.6
 51095,-0.112262\C,0,0.041763,4.4869,0.876088\C,0,0.250324,5.860092,0.8
 37262\C,0,1.009103,6.417424,-0.205323\C,0,1.222924,7.831574,-0.252529\
 N,0,1.397135,8.983785,-0.290743\C,0,1.559315,5.593733,-1.201331\C,0,1.
 35255,4.220616,-1.147774\C,0,1.463366,1.30875,-0.101394\C,0,2.84665,1.
 584479,-0.064911\C,0,3.52289,0.366754,-0.051897\C,0,4.970481,0.179485,
 -0.062159\C,0,5.729659,-0.791432,-0.676026\C,0,7.133575,-0.618838,-0.4
 93847\C,0,7.445219,0.481016,0.256629\S,0,6.016413,1.327765,0.762938\C,
 0,2.52088,-0.657595,-0.067546\C,0,2.745533,-2.111977,0.000258\C,0,2.23
 9413,-2.994435,-0.965126\C,0,2.491308,-4.364957,-0.89651\C,0,3.256433,
 -4.876297,0.158639\O,0,3.556507,-6.199311,0.326265\C,0,3.05249,-7.1326
 6,-0.635713\C,0,3.771121,-4.005198,1.1327\C,0,3.52655,-2.643465,1.0464
 19\N,0,1.293205,-0.077891,-0.110784\B,0,-0.091223,-0.800883,0.023256\F
 ,0,-0.348228,-1.591254,-1.09802\F,0,-0.074134,-1.578203,1.181783\N,0,-
 1.1921,0.309145,0.112169\C,0,-2.961681,-2.141992,1.127453\C,0,-3.61056
 1,-3.368195,1.117229\H,0,-5.486707,-5.329501,-1.860165\H,0,-6.317042,-
 6.319044,-0.629215\H,0,-6.849704,-4.642095,-0.925718\H,0,-5.41165,-2.9
 95726,-1.761157\H,0,-4.277702,-0.822561,-1.717171\H,0,-4.697683,3.3807
 44,-1.357129\H,0,-7.277797,3.571275,-0.8713\H,0,-8.082746,1.71975,0.82
 9198\H,0,-2.313287,3.42315,-0.10399\H,0,-0.531574,4.055649,1.688802\H,
 0,-0.165427,6.500268,1.60725\H,0,2.138035,6.030679,-2.007345\H,0,1.765
 166,3.586489,-1.92421\H,0,3.288782,2.569916,-0.066448\H,0,5.29454,-1.5
 94914,-1.257464\H,0,7.879974,-1.285004,-0.911657\H,0,8.421027,0.847314
 ,0.546493\H,0,1.643319,-2.609518,-1.782693\H,0,2.092164,-5.016709,-1.6
 63828\H,0,3.441186,-6.919963,-1.637232\H,0,3.404345,-8.112209,-0.31032
 2\H,0,1.957593,-7.127448,-0.658028\H,0,4.358281,-4.415875,1.947673\H,0
 ,3.928527,-1.98131,1.806123\H,0,-2.277162,-1.907242,1.932528\H,0,-3.44
 492,-4.091366,1.909244\\Version=ES64L-G16RevA.03\State=1-A\HF=-2799.48
 62132\RMSD=7.514e-09\Dipole=-0.7561611,-1.1662848,-1.4241662\Quadrupol
 e=28.9863573,-25.4248818,-3.5614754,-6.4557692,4.1188995,13.4397903\PG
 =C01 [X(C38H26B1F2N3O2S2)]\\@


 In the race for quality, there is no finish line.
                               -- David T. Kearns
 Job cpu time:       0 days 18 hours  8 minutes 15.5 seconds.
 Elapsed time:       0 days  0 hours 17 minutes 18.0 seconds.
 File lengths (MBytes):  RWF=   2351 Int=      0 D2E=      0 Chk=    205 Scr=      1
 Normal termination of Gaussian 16 at Thu Nov  6 18:26:33 2025.
