 Entering Gaussian System, Link 0=g16
 Input=M100035890_reduced_sp.gjf
 Output=M100035890_reduced_sp.log
 Initial command:
 /public/software/gauss/g16/l1.exe "/public/home/baiding/1101_v2_sp/tmp_M100035890_reduced_sp_1568608/Gau-33794.inp" -scrdir="/public/home/baiding/1101_v2_sp/tmp_M100035890_reduced_sp_1568608/"
 Entering Link 1 = /public/software/gauss/g16/l1.exe PID=     33795.
  
 Copyright (c) 1988,1990,1992,1993,1995,1998,2003,2009,2016,
            Gaussian, Inc.  All Rights Reserved.
  
 This is part of the Gaussian(R) 16 program.  It is based on
 the Gaussian(R) 09 system (copyright 2009, Gaussian, Inc.),
 the Gaussian(R) 03 system (copyright 2003, Gaussian, Inc.),
 the Gaussian(R) 98 system (copyright 1998, Gaussian, Inc.),
 the Gaussian(R) 94 system (copyright 1995, Gaussian, Inc.),
 the Gaussian 92(TM) system (copyright 1992, Gaussian, Inc.),
 the Gaussian 90(TM) system (copyright 1990, Gaussian, Inc.),
 the Gaussian 88(TM) system (copyright 1988, Gaussian, Inc.),
 the Gaussian 86(TM) system (copyright 1986, Carnegie Mellon
 University), and the Gaussian 82(TM) system (copyright 1983,
 Carnegie Mellon University). Gaussian is a federally registered
 trademark of Gaussian, Inc.
  
 This software contains proprietary and confidential information,
 including trade secrets, belonging to Gaussian, Inc.
  
 This software is provided under written license and may be
 used, copied, transmitted, or stored only in accord with that
 written license.
  
 The following legend is applicable only to US Government
 contracts under FAR:
  
                    RESTRICTED RIGHTS LEGEND
  
 Use, reproduction and disclosure by the US Government is
 subject to restrictions as set forth in subparagraphs (a)
 and (c) of the Commercial Computer Software - Restricted
 Rights clause in FAR 52.227-19.
  
 Gaussian, Inc.
 340 Quinnipiac St., Bldg. 40, Wallingford CT 06492
  
  
 ---------------------------------------------------------------
 Warning -- This program may not be used in any manner that
 competes with the business of Gaussian, Inc. or will provide
 assistance to any competitor of Gaussian, Inc.  The licensee
 of this program is prohibited from giving any competitor of
 Gaussian, Inc. access to this program.  By using this program,
 the user acknowledges that Gaussian, Inc. is engaged in the
 business of creating and licensing software in the field of
 computational chemistry and represents and warrants to the
 licensee that it is not a competitor of Gaussian, Inc. and that
 it will not use this program in any manner prohibited above.
 ---------------------------------------------------------------
  

 Cite this work as:
 Gaussian 16, Revision A.03,
 M. J. Frisch, G. W. Trucks, H. B. Schlegel, G. E. Scuseria, 
 M. A. Robb, J. R. Cheeseman, G. Scalmani, V. Barone, 
 G. A. Petersson, H. Nakatsuji, X. Li, M. Caricato, A. V. Marenich, 
 J. Bloino, B. G. Janesko, R. Gomperts, B. Mennucci, H. P. Hratchian, 
 J. V. Ortiz, A. F. Izmaylov, J. L. Sonnenberg, D. Williams-Young, 
 F. Ding, F. Lipparini, F. Egidi, J. Goings, B. Peng, A. Petrone, 
 T. Henderson, D. Ranasinghe, V. G. Zakrzewski, J. Gao, N. Rega, 
 G. Zheng, W. Liang, M. Hada, M. Ehara, K. Toyota, R. Fukuda, 
 J. Hasegawa, M. Ishida, T. Nakajima, Y. Honda, O. Kitao, H. Nakai, 
 T. Vreven, K. Throssell, J. A. Montgomery, Jr., J. E. Peralta, 
 F. Ogliaro, M. J. Bearpark, J. J. Heyd, E. N. Brothers, K. N. Kudin, 
 V. N. Staroverov, T. A. Keith, R. Kobayashi, J. Normand, 
 K. Raghavachari, A. P. Rendell, J. C. Burant, S. S. Iyengar, 
 J. Tomasi, M. Cossi, J. M. Millam, M. Klene, C. Adamo, R. Cammi, 
 J. W. Ochterski, R. L. Martin, K. Morokuma, O. Farkas, 
 J. B. Foresman, and D. J. Fox, Gaussian, Inc., Wallingford CT, 2016.
 
 ******************************************
 Gaussian 16:  ES64L-G16RevA.03 25-Dec-2016
                 7-Nov-2025 
 ******************************************
 %nprocshared=64
 Will use up to   64 processors via shared memory.
 %mem=230GB
 %chk=M100035890_reduced_sp.chk
 ----------------------------------------------
 #p M062X/DEF2TZVPP scrf=(solvent=water) em=GD3
 ----------------------------------------------
 1/38=1,172=1/1;
 2/12=2,17=6,18=5,40=1/2;
 3/5=44,7=202,11=2,25=1,30=1,70=2201,72=1,74=-55,124=31/1,2,3;
 4//1;
 5/5=2,38=5,53=1/2;
 6/7=2,8=2,9=2,10=2,28=1/1;
 99/5=1,9=1/99;
 Leave Link    1 at Fri Nov  7 13:18:31 2025, MaxMem= 30870077440 cpu:              10.6 elap:               0.2
 (Enter /public/software/gauss/g16/l101.exe)
 -----------------------------------------
 Energy calculation for M100035890_reduced
 -----------------------------------------
 Symbolic Z-matrix:
 Charge = -1 Multiplicity = 2
 C                     0.02416   6.46898  -0.0966 
 C                     0.06316   4.95995  -0.08907 
 C                     0.06603   4.23317  -1.28406 
 C                     0.07176   2.83305  -1.29777 
 C                     0.07525   2.09569  -2.61656 
 C                     0.07705   2.12941  -0.07302 
 C                     0.08653   0.63507  -0.06657 
 C                    -1.13299  -0.09335  -0.04153 
 C                    -2.46877   0.34523   0.00313 
 C                    -3.30444  -0.80263   0.02754 
 C                    -4.77302  -0.84073   0.08604 
 C                    -5.50063  -2.01007  -0.20085 
 C                    -6.88975  -2.05117  -0.14323 
 C                    -7.64533  -0.91      0.21179 
 N                    -9.04204  -0.95613   0.32108 
 C                    -9.72952  -2.05877  -0.34941 
 C                    -9.75903   0.31713   0.2627 
 C                    -6.91875   0.27179   0.48132 
 C                    -5.52853   0.2956    0.42523 
 C                    -2.44372  -1.90574  -0.00157 
 N                    -1.14256  -1.48779  -0.04336 
 B                     0.09134  -2.39812  -0.14712 
 F                     0.09648  -3.10093  -1.36844 
 F                     0.11216  -3.33917   0.89694 
 N                     1.33406  -1.47616  -0.05991 
 C                     2.62006  -1.88924  -0.02851 
 C                     3.48634  -0.78135  -0.01405 
 C                     4.93551  -0.83382   0.02145 
 C                     5.63539  -2.06371   0.11925 
 C                     7.01555  -2.11027   0.1552 
 C                     7.74652  -0.91241   0.09511 
 N                     9.17526  -0.95133   0.13445 
 O                     9.74986  -2.05645   0.21782 
 O                     9.81394   0.12007   0.08423 
 C                     7.08895   0.32303  -0.00248 
 C                     5.70757   0.35409  -0.03845 
 C                     2.64574   0.37114  -0.03886 
 C                     1.3169   -0.07272  -0.06313 
 C                     0.07846   2.84701   1.14415 
 C                     0.08985   2.12503   2.47141 
 C                     0.07262   4.24657   1.11439 
 H                     0.47393   6.87607  -1.00706 
 H                    -1.00838   6.83814  -0.05155 
 H                     0.55321   6.88717   0.7652 
 H                     0.06489   4.76765  -2.23154 
 H                     0.96084   1.45842  -2.71718 
 H                    -0.79856   1.44163  -2.71154 
 H                     0.06607   2.79674  -3.4554 
 H                    -2.78277   1.37966   0.00527 
 H                    -4.97218  -2.91254  -0.49555 
 H                    -7.38522  -2.98297  -0.38627 
 H                    -9.5527   -2.07914  -1.43592 
 H                    -9.42226  -3.02238   0.06406 
 H                    -10.80237  -1.95945  -0.17808 
 H                    -9.58644   0.8647   -0.67671 
 H                    -10.8285   0.12263   0.35553 
 H                    -9.47376   0.96729   1.09321 
 H                    -7.43708   1.18519   0.74566 
 H                    -5.02034   1.22718   0.6578 
 H                    -2.67986  -2.96049   0.02267 
 H                     2.85605  -2.94412  -0.02807 
 H                     5.08415  -2.99589   0.1734 
 H                     7.53573  -3.0565    0.2321 
 H                     7.66536   1.23824  -0.0503 
 H                     5.20971   1.31382  -0.11827 
 H                     2.95401   1.40641  -0.02372 
 H                     0.97301   1.48442   2.57168 
 H                     0.09177   2.836     3.3019 
 H                    -0.78657   1.47702   2.58201 
 H                     0.07701   4.79177   2.05577 
 
 ITRead=  0  0  0  0  0  0  0  0  0  0  0  0  0  0  0  0  0  0  0  0
 ITRead=  0  0  0  0  0  0  0  0  0  0  0  0  0  0  0  0  0  0  0  0
 ITRead=  0  0  0  0  0  0  0  0  0  0  0  0  0  0  0  0  0  0  0  0
 ITRead=  0  0  0  0  0  0  0  0  0  0
 MicOpt= -1 -1 -1 -1 -1 -1 -1 -1 -1 -1 -1 -1 -1 -1 -1 -1 -1 -1 -1 -1
 MicOpt= -1 -1 -1 -1 -1 -1 -1 -1 -1 -1 -1 -1 -1 -1 -1 -1 -1 -1 -1 -1
 MicOpt= -1 -1 -1 -1 -1 -1 -1 -1 -1 -1 -1 -1 -1 -1 -1 -1 -1 -1 -1 -1
 MicOpt= -1 -1 -1 -1 -1 -1 -1 -1 -1 -1
 NAtoms=     70 NQM=       70 NQMF=       0 NMMI=      0 NMMIF=      0
                NMic=       0 NMicF=      0.
                    Isotopes and Nuclear Properties:
 (Nuclear quadrupole moments (NQMom) in fm**2, nuclear magnetic moments (NMagM)
  in nuclear magnetons)

  Atom         1           2           3           4           5           6           7           8           9          10
 IAtWgt=          12          12          12          12          12          12          12          12          12          12
 AtmWgt=  12.0000000  12.0000000  12.0000000  12.0000000  12.0000000  12.0000000  12.0000000  12.0000000  12.0000000  12.0000000
 NucSpn=           0           0           0           0           0           0           0           0           0           0
 AtZEff=  -0.0000000  -0.0000000  -0.0000000  -0.0000000  -0.0000000  -0.0000000  -0.0000000  -0.0000000  -0.0000000  -0.0000000
 NQMom=    0.0000000   0.0000000   0.0000000   0.0000000   0.0000000   0.0000000   0.0000000   0.0000000   0.0000000   0.0000000
 NMagM=    0.0000000   0.0000000   0.0000000   0.0000000   0.0000000   0.0000000   0.0000000   0.0000000   0.0000000   0.0000000
 AtZNuc=   6.0000000   6.0000000   6.0000000   6.0000000   6.0000000   6.0000000   6.0000000   6.0000000   6.0000000   6.0000000

  Atom        11          12          13          14          15          16          17          18          19          20
 IAtWgt=          12          12          12          12          14          12          12          12          12          12
 AtmWgt=  12.0000000  12.0000000  12.0000000  12.0000000  14.0030740  12.0000000  12.0000000  12.0000000  12.0000000  12.0000000
 NucSpn=           0           0           0           0           2           0           0           0           0           0
 AtZEff=  -0.0000000  -0.0000000  -0.0000000  -0.0000000  -0.0000000  -0.0000000  -0.0000000  -0.0000000  -0.0000000  -0.0000000
 NQMom=    0.0000000   0.0000000   0.0000000   0.0000000   2.0440000   0.0000000   0.0000000   0.0000000   0.0000000   0.0000000
 NMagM=    0.0000000   0.0000000   0.0000000   0.0000000   0.4037610   0.0000000   0.0000000   0.0000000   0.0000000   0.0000000
 AtZNuc=   6.0000000   6.0000000   6.0000000   6.0000000   7.0000000   6.0000000   6.0000000   6.0000000   6.0000000   6.0000000

  Atom        21          22          23          24          25          26          27          28          29          30
 IAtWgt=          14          11          19          19          14          12          12          12          12          12
 AtmWgt=  14.0030740  11.0093053  18.9984033  18.9984033  14.0030740  12.0000000  12.0000000  12.0000000  12.0000000  12.0000000
 NucSpn=           2           3           1           1           2           0           0           0           0           0
 AtZEff=  -0.0000000  -0.0000000  -0.0000000  -0.0000000  -0.0000000  -0.0000000  -0.0000000  -0.0000000  -0.0000000  -0.0000000
 NQMom=    2.0440000   4.0590000   0.0000000   0.0000000   2.0440000   0.0000000   0.0000000   0.0000000   0.0000000   0.0000000
 NMagM=    0.4037610   2.6886370   2.6288670   2.6288670   0.4037610   0.0000000   0.0000000   0.0000000   0.0000000   0.0000000
 AtZNuc=   7.0000000   5.0000000   9.0000000   9.0000000   7.0000000   6.0000000   6.0000000   6.0000000   6.0000000   6.0000000

  Atom        31          32          33          34          35          36          37          38          39          40
 IAtWgt=          12          14          16          16          12          12          12          12          12          12
 AtmWgt=  12.0000000  14.0030740  15.9949146  15.9949146  12.0000000  12.0000000  12.0000000  12.0000000  12.0000000  12.0000000
 NucSpn=           0           2           0           0           0           0           0           0           0           0
 AtZEff=  -0.0000000  -0.0000000  -0.0000000  -0.0000000  -0.0000000  -0.0000000  -0.0000000  -0.0000000  -0.0000000  -0.0000000
 NQMom=    0.0000000   2.0440000   0.0000000   0.0000000   0.0000000   0.0000000   0.0000000   0.0000000   0.0000000   0.0000000
 NMagM=    0.0000000   0.4037610   0.0000000   0.0000000   0.0000000   0.0000000   0.0000000   0.0000000   0.0000000   0.0000000
 AtZNuc=   6.0000000   7.0000000   8.0000000   8.0000000   6.0000000   6.0000000   6.0000000   6.0000000   6.0000000   6.0000000

  Atom        41          42          43          44          45          46          47          48          49          50
 IAtWgt=          12           1           1           1           1           1           1           1           1           1
 AtmWgt=  12.0000000   1.0078250   1.0078250   1.0078250   1.0078250   1.0078250   1.0078250   1.0078250   1.0078250   1.0078250
 NucSpn=           0           1           1           1           1           1           1           1           1           1
 AtZEff=  -0.0000000  -0.0000000  -0.0000000  -0.0000000  -0.0000000  -0.0000000  -0.0000000  -0.0000000  -0.0000000  -0.0000000
 NQMom=    0.0000000   0.0000000   0.0000000   0.0000000   0.0000000   0.0000000   0.0000000   0.0000000   0.0000000   0.0000000
 NMagM=    0.0000000   2.7928460   2.7928460   2.7928460   2.7928460   2.7928460   2.7928460   2.7928460   2.7928460   2.7928460
 AtZNuc=   6.0000000   1.0000000   1.0000000   1.0000000   1.0000000   1.0000000   1.0000000   1.0000000   1.0000000   1.0000000

  Atom        51          52          53          54          55          56          57          58          59          60
 IAtWgt=           1           1           1           1           1           1           1           1           1           1
 AtmWgt=   1.0078250   1.0078250   1.0078250   1.0078250   1.0078250   1.0078250   1.0078250   1.0078250   1.0078250   1.0078250
 NucSpn=           1           1           1           1           1           1           1           1           1           1
 AtZEff=  -0.0000000  -0.0000000  -0.0000000  -0.0000000  -0.0000000  -0.0000000  -0.0000000  -0.0000000  -0.0000000  -0.0000000
 NQMom=    0.0000000   0.0000000   0.0000000   0.0000000   0.0000000   0.0000000   0.0000000   0.0000000   0.0000000   0.0000000
 NMagM=    2.7928460   2.7928460   2.7928460   2.7928460   2.7928460   2.7928460   2.7928460   2.7928460   2.7928460   2.7928460
 AtZNuc=   1.0000000   1.0000000   1.0000000   1.0000000   1.0000000   1.0000000   1.0000000   1.0000000   1.0000000   1.0000000

  Atom        61          62          63          64          65          66          67          68          69          70
 IAtWgt=           1           1           1           1           1           1           1           1           1           1
 AtmWgt=   1.0078250   1.0078250   1.0078250   1.0078250   1.0078250   1.0078250   1.0078250   1.0078250   1.0078250   1.0078250
 NucSpn=           1           1           1           1           1           1           1           1           1           1
 AtZEff=  -0.0000000  -0.0000000  -0.0000000  -0.0000000  -0.0000000  -0.0000000  -0.0000000  -0.0000000  -0.0000000  -0.0000000
 NQMom=    0.0000000   0.0000000   0.0000000   0.0000000   0.0000000   0.0000000   0.0000000   0.0000000   0.0000000   0.0000000
 NMagM=    2.7928460   2.7928460   2.7928460   2.7928460   2.7928460   2.7928460   2.7928460   2.7928460   2.7928460   2.7928460
 AtZNuc=   1.0000000   1.0000000   1.0000000   1.0000000   1.0000000   1.0000000   1.0000000   1.0000000   1.0000000   1.0000000
 Leave Link  101 at Fri Nov  7 13:18:31 2025, MaxMem= 30870077440 cpu:               3.9 elap:               0.1
 (Enter /public/software/gauss/g16/l202.exe)
 Stoichiometry    C32H29BF2N4O2(1-,2)
 Framework group  C1[X(C32H29BF2N4O2)]
 Deg. of freedom   204
 Full point group                 C1      NOp   1
 Largest Abelian subgroup         C1      NOp   1
 Largest concise Abelian subgroup C1      NOp   1
                         Standard orientation:                         
 ---------------------------------------------------------------------
 Center     Atomic      Atomic             Coordinates (Angstroms)
 Number     Number       Type             X           Y           Z
 ---------------------------------------------------------------------
      1          6           0       -0.024160    6.468979    0.096602
      2          6           0       -0.063158    4.959945    0.089069
      3          6           0       -0.066027    4.233170    1.284064
      4          6           0       -0.071759    2.833052    1.297770
      5          6           0       -0.075247    2.095692    2.616561
      6          6           0       -0.077047    2.129407    0.073022
      7          6           0       -0.086530    0.635074    0.066566
      8          6           0        1.132992   -0.093348    0.041531
      9          6           0        2.468770    0.345228   -0.003134
     10          6           0        3.304438   -0.802627   -0.027538
     11          6           0        4.773022   -0.840725   -0.086039
     12          6           0        5.500626   -2.010071    0.200849
     13          6           0        6.889751   -2.051169    0.143234
     14          6           0        7.645327   -0.910002   -0.211785
     15          7           0        9.042040   -0.956126   -0.321077
     16          6           0        9.729524   -2.058769    0.349407
     17          6           0        9.759028    0.317130   -0.262704
     18          6           0        6.918754    0.271787   -0.481315
     19          6           0        5.528526    0.295598   -0.425227
     20          6           0        2.443724   -1.905743    0.001569
     21          7           0        1.142558   -1.487789    0.043357
     22          5           0       -0.091335   -2.398124    0.147117
     23          9           0       -0.096479   -3.100925    1.368438
     24          9           0       -0.112157   -3.339171   -0.896935
     25          7           0       -1.334055   -1.476159    0.059909
     26          6           0       -2.620061   -1.889243    0.028508
     27          6           0       -3.486344   -0.781353    0.014052
     28          6           0       -4.935514   -0.833816   -0.021447
     29          6           0       -5.635385   -2.063713   -0.119247
     30          6           0       -7.015546   -2.110267   -0.155202
     31          6           0       -7.746519   -0.912411   -0.095107
     32          7           0       -9.175265   -0.951327   -0.134450
     33          8           0       -9.749864   -2.056452   -0.217818
     34          8           0       -9.813936    0.120066   -0.084234
     35          6           0       -7.088949    0.323029    0.002479
     36          6           0       -5.707568    0.354091    0.038452
     37          6           0       -2.645738    0.371135    0.038855
     38          6           0       -1.316896   -0.072715    0.063129
     39          6           0       -0.078464    2.847005   -1.144147
     40          6           0       -0.089852    2.125032   -2.471406
     41          6           0       -0.072617    4.246567   -1.114387
     42          1           0       -0.473928    6.876065    1.007062
     43          1           0        1.008376    6.838139    0.051551
     44          1           0       -0.553210    6.887167   -0.765204
     45          1           0       -0.064894    4.767646    2.231535
     46          1           0       -0.960841    1.458424    2.717175
     47          1           0        0.798560    1.441628    2.711543
     48          1           0       -0.066065    2.796740    3.455402
     49          1           0        2.782767    1.379662   -0.005269
     50          1           0        4.972181   -2.912537    0.495550
     51          1           0        7.385223   -2.982968    0.386266
     52          1           0        9.552698   -2.079140    1.435917
     53          1           0        9.422257   -3.022377   -0.064061
     54          1           0       10.802366   -1.959449    0.178083
     55          1           0        9.586439    0.864704    0.676714
     56          1           0       10.828495    0.122634   -0.355530
     57          1           0        9.473764    0.967293   -1.093210
     58          1           0        7.437084    1.185191   -0.745657
     59          1           0        5.020335    1.227181   -0.657797
     60          1           0        2.679862   -2.960493   -0.022667
     61          1           0       -2.856045   -2.944121    0.028070
     62          1           0       -5.084145   -2.995890   -0.173398
     63          1           0       -7.535733   -3.056502   -0.232100
     64          1           0       -7.665358    1.238242    0.050302
     65          1           0       -5.209705    1.313821    0.118274
     66          1           0       -2.954014    1.406410    0.023721
     67          1           0       -0.973010    1.484416   -2.571683
     68          1           0       -0.091771    2.836003   -3.301899
     69          1           0        0.786574    1.477018   -2.582011
     70          1           0       -0.077014    4.791774   -2.055772
 ---------------------------------------------------------------------
 Rotational constants (GHZ):           0.1553278           0.0326514           0.0280490
 Leave Link  202 at Fri Nov  7 13:18:31 2025, MaxMem= 30870077440 cpu:               0.2 elap:               0.0
 (Enter /public/software/gauss/g16/l301.exe)
 Standard basis: def2TZVPP (5D, 7F)
 Ernie: Thresh=  0.10000D-02 Tol=  0.10000D-05 Strict=F.
 There are  1911 symmetry adapted cartesian basis functions of A   symmetry.
 There are  1677 symmetry adapted basis functions of A   symmetry.
  1677 basis functions,  2584 primitive gaussians,  1911 cartesian basis functions
   145 alpha electrons      144 beta electrons
       nuclear repulsion energy      4295.1863612617 Hartrees.
 IExCor= 4336 DFT=T Ex+Corr=M062X ExCW=0 ScaHFX=  0.540000
 ScaDFX=  1.000000  1.000000  1.000000  1.000000 ScalE2=  1.000000  1.000000
 IRadAn=      5 IRanWt=     -1 IRanGd=            0 ICorTp=0 IEmpDi=131
 NAtoms=   70 NActive=   70 NUniq=   70 SFac= 1.00D+00 NAtFMM=   60 NAOKFM=T Big=T
 Integral buffers will be    131072 words long.
 Raffenetti 2 integral format.
 Two-electron integral symmetry is turned on.
 R6Disp:  Grimme-D3 Dispersion energy=       -0.0056110368 Hartrees.
 Nuclear repulsion after empirical dispersion term =     4295.1807502249 Hartrees.
 ------------------------------------------------------------------------------
 Polarizable Continuum Model (PCM)
 =================================
 Model                : PCM.
 Atomic radii         : UFF (Universal Force Field).
 Polarization charges : Total charges.
 Charge compensation  : None.
 Solution method      : On-the-fly selection.
 Cavity type          : Scaled VdW (van der Waals Surface) (Alpha=1.100).
 Cavity algorithm     : GePol (No added spheres)
                        Default sphere list used, NSphG=   70.
                        Lebedev-Laikov grids with approx.  5.0 points / Ang**2.
                        Smoothing algorithm: York/Karplus (Gamma=1.0000).
                        Polarization charges: spherical gaussians, with
                                              point-specific exponents (IZeta= 3).
                        Self-potential: point-specific (ISelfS= 7).
                        Self-field    : sphere-specific E.n sum rule (ISelfD= 2).
 Solvent              : Water, Eps=  78.355300 Eps(inf)=   1.777849
 ------------------------------------------------------------------------------
 GePol: Number of generator spheres                  =      70
 GePol: Total number of spheres                      =      70
 GePol: Number of exposed spheres                    =      70 (100.00%)
 GePol: Number of points                             =    5083
 GePol: Average weight of points                     =       0.13
 GePol: Minimum weight of points                     =   0.16D-11
 GePol: Maximum weight of points                     =    0.20577
 GePol: Number of points with low weight             =     329
 GePol: Fraction of low-weight points (<1% of avg)   =       6.47%
 GePol: Cavity surface area                          =    645.915 Ang**2
 GePol: Cavity volume                                =    739.180 Ang**3
 Leave Link  301 at Fri Nov  7 13:18:31 2025, MaxMem= 30870077440 cpu:               3.6 elap:               0.1
 (Enter /public/software/gauss/g16/l302.exe)
 NPDir=0 NMtPBC=     1 NCelOv=     1 NCel=       1 NClECP=     1 NCelD=      1
         NCelK=      1 NCelE2=     1 NClLst=     1 CellRange=     0.0.
 One-electron integrals computed using PRISM.
 One-electron integral symmetry used in STVInt
   1 Symmetry operations used in ECPInt.
 ECPInt:  NShTT=  195625 NPrTT=  554867 LenC2=  126440 LenP2D=  244855.
 LDataN:  DoStor=T MaxTD1= 6 Len=  172
 NBasis=  1677 RedAO= T EigKep=  3.11D-06  NBF=  1677
 NBsUse=  1677 1.00D-06 EigRej= -1.00D+00 NBFU=  1677
 Precomputing XC quadrature grid using
 IXCGrd= 4 IRadAn=           5 IRanWt=          -1 IRanGd=           0 AccXCQ= 0.00D+00.
 Generated NRdTot=       0 NPtTot=           0 NUsed=           0 NTot=          32
 NSgBfM=  1646  1633  1634  1634  1646 MxSgAt=    70 MxSgA2=    70.
 Leave Link  302 at Fri Nov  7 13:18:39 2025, MaxMem= 30870077440 cpu:             461.3 elap:               7.2
 (Enter /public/software/gauss/g16/l303.exe)
 DipDrv:  MaxL=1.
 Leave Link  303 at Fri Nov  7 13:18:39 2025, MaxMem= 30870077440 cpu:              22.8 elap:               0.4
 (Enter /public/software/gauss/g16/l401.exe)
 ExpMin= 6.06D-02 ExpMax= 3.55D+04 ExpMxC= 1.21D+03 IAcc=3 IRadAn=         5 AccDes= 0.00D+00
 Harris functional with IExCor= 1009 and IRadAn=       5 diagonalized for initial guess.
 HarFok:  IExCor= 1009 AccDes= 0.00D+00 IRadAn=         5 IDoV= 1 UseB2=F ITyADJ=14
 ICtDFT=  3500011 ScaDFX=  1.000000  1.000000  1.000000  1.000000
 FoFCou: FMM=F IPFlag=           0 FMFlag=      100000 FMFlg1=        2001
         NFxFlg=           0 DoJE=T BraDBF=F KetDBF=T FulRan=T
         wScrn=  0.000000 ICntrl=       500 IOpCl=  0 I1Cent=   200000004 NGrid=           0
         NMat0=    1 NMatS0=      1 NMatT0=    0 NMatD0=    1 NMtDS0=    0 NMtDT0=    0
 Petite list used in FoFCou.
 Harris En= -1830.27055860469    
 JPrj=0 DoOrth=F DoCkMO=F.
 Initial guess <Sx>= 0.0000 <Sy>= 0.0000 <Sz>= 0.5000 <S**2>= 0.7500 S= 0.5000
 Leave Link  401 at Fri Nov  7 13:18:50 2025, MaxMem= 30870077440 cpu:             672.5 elap:              10.6
 (Enter /public/software/gauss/g16/l502.exe)
 Integral symmetry usage will be decided dynamically.
 UHF open shell SCF:
 Using DIIS extrapolation, IDIIS=  1040.
 NGot= 30870077440 LenX= 30862635184 LenY= 30858981352
 Requested convergence on RMS density matrix=1.00D-08 within 128 cycles.
 Requested convergence on MAX density matrix=1.00D-06.
 Requested convergence on             energy=1.00D-06.
 No special actions if energy rises.
 Fock matrices will be formed incrementally for  20 cycles.

 Cycle   1  Pass 1  IDiag  1:
 FoFJK:  IHMeth= 1 ICntrl=       0 DoSepK=F KAlg= 0 I1Cent=           0 FoldK=F
 IRaf= 610000000 NMat=       1 IRICut=       1 DoRegI=T DoRafI=F ISym2E= 0 IDoP0=0 IntGTp=1.
 FoFCou: FMM=T IPFlag=           0 FMFlag=      100000 FMFlg1=        2001
         NFxFlg=           0 DoJE=F BraDBF=F KetDBF=F FulRan=T
         wScrn=  0.000000 ICntrl=         0 IOpCl=  1 I1Cent=           0 NGrid=           0
         NMat0=    1 NMatS0=      1 NMatT0=    0 NMatD0=    1 NMtDS0=    0 NMtDT0=    0
 Symmetry not used in FoFCou.
 FMM levels:  10  Number of levels for PrismC:   9
 Inv3:  Mode=1 IEnd=    77510667.
 Iteration    1 A*A^-1 deviation from unit magnitude is 6.00D-15 for   5053.
 Iteration    1 A*A^-1 deviation from orthogonality  is 4.62D-15 for   5051   1930.
 Iteration    1 A^-1*A deviation from unit magnitude is 6.00D-15 for   5053.
 Iteration    1 A^-1*A deviation from orthogonality  is 7.45D-15 for   4777   4776.
 E= -1830.04290232841    
 DIIS: error= 3.29D-02 at cycle   1 NSaved=   1.
 NSaved= 1 IEnMin= 1 EnMin= -1830.04290232841     IErMin= 1 ErrMin= 3.29D-02
 ErrMax= 3.29D-02  0.00D+00 EMaxC= 1.00D-01 BMatC= 5.33D+00 BMatP= 5.33D+00
 IDIUse=3 WtCom= 6.71D-01 WtEn= 3.29D-01
 Coeff-Com:  0.100D+01
 Coeff-En:   0.100D+01
 Coeff:      0.100D+01
 Gap=     0.046 Goal=   None    Shift=    0.000
 Gap=     0.180 Goal=   None    Shift=    0.000
 GapD=    0.046 DampG=0.250 DampE=0.500 DampFc=0.2500 IDamp=-1.
 Damping current iteration by 2.50D-01
 RMSDP=1.52D-03 MaxDP=1.59D-01              OVMax= 6.69D-01

 Cycle   2  Pass 1  IDiag  1:
 RMSU=  3.79D-04    CP:  9.89D-01
 E= -1830.39958916693     Delta-E=       -0.356686838525 Rises=F Damp=T
 DIIS: error= 1.57D-02 at cycle   2 NSaved=   2.
 NSaved= 2 IEnMin= 2 EnMin= -1830.39958916693     IErMin= 2 ErrMin= 1.57D-02
 ErrMax= 1.57D-02  0.00D+00 EMaxC= 1.00D-01 BMatC= 1.86D+00 BMatP= 5.33D+00
 IDIUse=3 WtCom= 8.43D-01 WtEn= 1.57D-01
 Coeff-Com: -0.113D+01 0.213D+01
 Coeff-En:   0.000D+00 0.100D+01
 Coeff:     -0.956D+00 0.196D+01
 Gap=     0.024 Goal=   None    Shift=    0.000
 Gap=     0.218 Goal=   None    Shift=    0.000
 RMSDP=9.42D-04 MaxDP=1.57D-01 DE=-3.57D-01 OVMax= 6.54D-01

 Cycle   3  Pass 1  IDiag  1:
 RMSU=  6.97D-04    CP:  9.67D-01  2.66D+00
 E= -1831.04371433658     Delta-E=       -0.644125169645 Rises=F Damp=F
 DIIS: error= 1.59D-02 at cycle   3 NSaved=   3.
 NSaved= 3 IEnMin= 3 EnMin= -1831.04371433658     IErMin= 2 ErrMin= 1.57D-02
 ErrMax= 1.59D-02  0.00D+00 EMaxC= 1.00D-01 BMatC= 2.52D-01 BMatP= 1.86D+00
 IDIUse=3 WtCom= 8.41D-01 WtEn= 1.59D-01
 Coeff-Com: -0.514D+00 0.899D+00 0.616D+00
 Coeff-En:   0.000D+00 0.000D+00 0.100D+01
 Coeff:     -0.432D+00 0.756D+00 0.677D+00
 Gap=     0.068 Goal=   None    Shift=    0.000
 Gap=     0.169 Goal=   None    Shift=    0.000
 RMSDP=2.70D-04 MaxDP=7.11D-02 DE=-6.44D-01 OVMax= 9.07D-02

 Cycle   4  Pass 1  IDiag  1:
 RMSU=  2.58D-04    CP:  9.62D-01  2.53D+00  9.14D-01
 E= -1831.08776469255     Delta-E=       -0.044050355969 Rises=F Damp=F
 DIIS: error= 6.63D-03 at cycle   4 NSaved=   4.
 NSaved= 4 IEnMin= 4 EnMin= -1831.08776469255     IErMin= 4 ErrMin= 6.63D-03
 ErrMax= 6.63D-03  0.00D+00 EMaxC= 1.00D-01 BMatC= 5.33D-02 BMatP= 2.52D-01
 IDIUse=3 WtCom= 9.34D-01 WtEn= 6.63D-02
 Coeff-Com: -0.708D-01 0.118D+00 0.323D+00 0.630D+00
 Coeff-En:   0.000D+00 0.000D+00 0.136D+00 0.864D+00
 Coeff:     -0.661D-01 0.110D+00 0.310D+00 0.646D+00
 Gap=     0.093 Goal=   None    Shift=    0.000
 Gap=     0.155 Goal=   None    Shift=    0.000
 RMSDP=9.92D-05 MaxDP=5.14D-02 DE=-4.41D-02 OVMax= 8.50D-02

 Cycle   5  Pass 1  IDiag  1:
 RMSU=  9.88D-05    CP:  9.62D-01  2.54D+00  9.10D-01  9.68D-01
 E= -1831.09928484041     Delta-E=       -0.011520147861 Rises=F Damp=F
 DIIS: error= 1.65D-03 at cycle   5 NSaved=   5.
 NSaved= 5 IEnMin= 5 EnMin= -1831.09928484041     IErMin= 5 ErrMin= 1.65D-03
 ErrMax= 1.65D-03  0.00D+00 EMaxC= 1.00D-01 BMatC= 3.86D-03 BMatP= 5.33D-02
 IDIUse=3 WtCom= 9.83D-01 WtEn= 1.65D-02
 Coeff-Com: -0.149D-01 0.216D-01 0.109D+00 0.304D+00 0.580D+00
 Coeff-En:   0.000D+00 0.000D+00 0.000D+00 0.000D+00 0.100D+01
 Coeff:     -0.147D-01 0.213D-01 0.107D+00 0.299D+00 0.587D+00
 Gap=     0.099 Goal=   None    Shift=    0.000
 Gap=     0.156 Goal=   None    Shift=    0.000
 RMSDP=3.19D-05 MaxDP=1.48D-02 DE=-1.15D-02 OVMax= 2.44D-02

 Cycle   6  Pass 1  IDiag  1:
 RMSU=  3.00D-05    CP:  9.61D-01  2.54D+00  9.09D-01  9.94D-01  1.08D+00
 E= -1831.10034009230     Delta-E=       -0.001055251895 Rises=F Damp=F
 DIIS: error= 4.25D-04 at cycle   6 NSaved=   6.
 NSaved= 6 IEnMin= 6 EnMin= -1831.10034009230     IErMin= 6 ErrMin= 4.25D-04
 ErrMax= 4.25D-04  0.00D+00 EMaxC= 1.00D-01 BMatC= 3.54D-04 BMatP= 3.86D-03
 IDIUse=3 WtCom= 9.96D-01 WtEn= 4.25D-03
 Coeff-Com:  0.297D-02-0.571D-02-0.185D-01-0.844D-02 0.186D+00 0.844D+00
 Coeff-En:   0.000D+00 0.000D+00 0.000D+00 0.000D+00 0.000D+00 0.100D+01
 Coeff:      0.295D-02-0.569D-02-0.184D-01-0.840D-02 0.185D+00 0.845D+00
 Gap=     0.104 Goal=   None    Shift=    0.000
 Gap=     0.156 Goal=   None    Shift=    0.000
 RMSDP=2.81D-05 MaxDP=2.05D-02 DE=-1.06D-03 OVMax= 2.69D-02

 Cycle   7  Pass 1  IDiag  1:
 RMSU=  1.70D-05    CP:  9.62D-01  2.53D+00  9.10D-01  1.03D+00  1.29D+00
                    CP:  1.15D+00
 E= -1831.10064026829     Delta-E=       -0.000300175993 Rises=F Damp=F
 DIIS: error= 2.32D-04 at cycle   7 NSaved=   7.
 NSaved= 7 IEnMin= 7 EnMin= -1831.10064026829     IErMin= 7 ErrMin= 2.32D-04
 ErrMax= 2.32D-04  0.00D+00 EMaxC= 1.00D-01 BMatC= 9.03D-05 BMatP= 3.54D-04
 IDIUse=3 WtCom= 9.98D-01 WtEn= 2.32D-03
 Coeff-Com:  0.343D-02-0.551D-02-0.306D-01-0.671D-01-0.520D-01 0.291D+00
 Coeff-Com:  0.861D+00
 Coeff-En:   0.000D+00 0.000D+00 0.000D+00 0.000D+00 0.000D+00 0.000D+00
 Coeff-En:   0.100D+01
 Coeff:      0.342D-02-0.550D-02-0.305D-01-0.669D-01-0.518D-01 0.290D+00
 Coeff:      0.861D+00
 Gap=     0.107 Goal=   None    Shift=    0.000
 Gap=     0.156 Goal=   None    Shift=    0.000
 RMSDP=1.74D-05 MaxDP=1.19D-02 DE=-3.00D-04 OVMax= 1.75D-02

 Cycle   8  Pass 1  IDiag  1:
 RMSU=  7.23D-06    CP:  9.62D-01  2.53D+00  9.10D-01  1.05D+00  1.40D+00
                    CP:  1.36D+00  1.47D+00
 E= -1831.10075284590     Delta-E=       -0.000112577609 Rises=F Damp=F
 DIIS: error= 1.23D-04 at cycle   8 NSaved=   8.
 NSaved= 8 IEnMin= 8 EnMin= -1831.10075284590     IErMin= 8 ErrMin= 1.23D-04
 ErrMax= 1.23D-04  0.00D+00 EMaxC= 1.00D-01 BMatC= 3.78D-05 BMatP= 9.03D-05
 IDIUse=3 WtCom= 9.99D-01 WtEn= 1.23D-03
 Coeff-Com: -0.750D-03 0.140D-02-0.737D-02-0.254D-01-0.710D-01-0.122D+00
 Coeff-Com:  0.435D+00 0.791D+00
 Coeff-En:   0.000D+00 0.000D+00 0.000D+00 0.000D+00 0.000D+00 0.000D+00
 Coeff-En:   0.000D+00 0.100D+01
 Coeff:     -0.749D-03 0.140D-02-0.737D-02-0.253D-01-0.709D-01-0.122D+00
 Coeff:      0.434D+00 0.791D+00
 Gap=     0.108 Goal=   None    Shift=    0.000
 Gap=     0.156 Goal=   None    Shift=    0.000
 RMSDP=9.72D-06 MaxDP=5.75D-03 DE=-1.13D-04 OVMax= 1.06D-02

 Cycle   9  Pass 1  IDiag  1:
 RMSU=  4.30D-06    CP:  9.62D-01  2.53D+00  9.11D-01  1.05D+00  1.45D+00
                    CP:  1.44D+00  1.85D+00  1.28D+00
 E= -1831.10079263175     Delta-E=       -0.000039785845 Rises=F Damp=F
 DIIS: error= 5.92D-05 at cycle   9 NSaved=   9.
 NSaved= 9 IEnMin= 9 EnMin= -1831.10079263175     IErMin= 9 ErrMin= 5.92D-05
 ErrMax= 5.92D-05  0.00D+00 EMaxC= 1.00D-01 BMatC= 7.38D-06 BMatP= 3.78D-05
 IDIUse=1 WtCom= 1.00D+00 WtEn= 0.00D+00
 Coeff-Com: -0.853D-03 0.144D-02 0.611D-02 0.118D-01-0.458D-02-0.130D+00
 Coeff-Com: -0.100D+00 0.262D+00 0.954D+00
 Coeff:     -0.853D-03 0.144D-02 0.611D-02 0.118D-01-0.458D-02-0.130D+00
 Coeff:     -0.100D+00 0.262D+00 0.954D+00
 Gap=     0.108 Goal=   None    Shift=    0.000
 Gap=     0.156 Goal=   None    Shift=    0.000
 RMSDP=5.73D-06 MaxDP=2.44D-03 DE=-3.98D-05 OVMax= 5.88D-03

 Cycle  10  Pass 1  IDiag  1:
 RMSU=  2.17D-06    CP:  9.62D-01  2.53D+00  9.11D-01  1.05D+00  1.46D+00
                    CP:  1.48D+00  2.05D+00  1.67D+00  1.42D+00
 E= -1831.10080501956     Delta-E=       -0.000012387814 Rises=F Damp=F
 DIIS: error= 2.64D-05 at cycle  10 NSaved=  10.
 NSaved=10 IEnMin=10 EnMin= -1831.10080501956     IErMin=10 ErrMin= 2.64D-05
 ErrMax= 2.64D-05  0.00D+00 EMaxC= 1.00D-01 BMatC= 2.10D-06 BMatP= 7.38D-06
 IDIUse=1 WtCom= 1.00D+00 WtEn= 0.00D+00
 Coeff-Com: -0.975D-04 0.138D-03 0.346D-02 0.935D-02 0.129D-01-0.224D-01
 Coeff-Com: -0.119D+00-0.741D-01 0.367D+00 0.823D+00
 Coeff:     -0.975D-04 0.138D-03 0.346D-02 0.935D-02 0.129D-01-0.224D-01
 Coeff:     -0.119D+00-0.741D-01 0.367D+00 0.823D+00
 Gap=     0.108 Goal=   None    Shift=    0.000
 Gap=     0.155 Goal=   None    Shift=    0.000
 RMSDP=2.38D-06 MaxDP=6.86D-04 DE=-1.24D-05 OVMax= 2.09D-03

 Cycle  11  Pass 1  IDiag  1:
 RMSU=  8.99D-07    CP:  9.62D-01  2.53D+00  9.11D-01  1.05D+00  1.47D+00
                    CP:  1.49D+00  2.13D+00  1.79D+00  1.68D+00  1.39D+00
 E= -1831.10080799548     Delta-E=       -0.000002975917 Rises=F Damp=F
 DIIS: error= 2.00D-05 at cycle  11 NSaved=  11.
 NSaved=11 IEnMin=11 EnMin= -1831.10080799548     IErMin=11 ErrMin= 2.00D-05
 ErrMax= 2.00D-05  0.00D+00 EMaxC= 1.00D-01 BMatC= 5.83D-07 BMatP= 2.10D-06
 IDIUse=1 WtCom= 1.00D+00 WtEn= 0.00D+00
 Coeff-Com:  0.156D-03-0.269D-03-0.764D-03-0.560D-03 0.503D-02 0.296D-01
 Coeff-Com: -0.456D-02-0.922D-01-0.146D+00 0.263D+00 0.947D+00
 Coeff:      0.156D-03-0.269D-03-0.764D-03-0.560D-03 0.503D-02 0.296D-01
 Coeff:     -0.456D-02-0.922D-01-0.146D+00 0.263D+00 0.947D+00
 Gap=     0.108 Goal=   None    Shift=    0.000
 Gap=     0.155 Goal=   None    Shift=    0.000
 RMSDP=1.35D-06 MaxDP=2.37D-04 DE=-2.98D-06 OVMax= 1.04D-03

 Cycle  12  Pass 1  IDiag  1:
 RMSU=  5.98D-07    CP:  9.62D-01  2.53D+00  9.11D-01  1.05D+00  1.47D+00
                    CP:  1.50D+00  2.15D+00  1.85D+00  1.81D+00  1.73D+00
                    CP:  1.53D+00
 E= -1831.10080909042     Delta-E=       -0.000001094939 Rises=F Damp=F
 DIIS: error= 8.52D-06 at cycle  12 NSaved=  12.
 NSaved=12 IEnMin=12 EnMin= -1831.10080909042     IErMin=12 ErrMin= 8.52D-06
 ErrMax= 8.52D-06  0.00D+00 EMaxC= 1.00D-01 BMatC= 2.15D-07 BMatP= 5.83D-07
 IDIUse=1 WtCom= 1.00D+00 WtEn= 0.00D+00
 Coeff-Com:  0.824D-04-0.138D-03-0.138D-02-0.301D-02-0.187D-02 0.186D-01
 Coeff-Com:  0.332D-01-0.953D-02-0.171D+00-0.156D+00 0.378D+00 0.912D+00
 Coeff:      0.824D-04-0.138D-03-0.138D-02-0.301D-02-0.187D-02 0.186D-01
 Coeff:      0.332D-01-0.953D-02-0.171D+00-0.156D+00 0.378D+00 0.912D+00
 Gap=     0.108 Goal=   None    Shift=    0.000
 Gap=     0.155 Goal=   None    Shift=    0.000
 RMSDP=8.81D-07 MaxDP=1.50D-04 DE=-1.09D-06 OVMax= 7.02D-04

 Cycle  13  Pass 1  IDiag  1:
 RMSU=  3.06D-07    CP:  9.62D-01  2.53D+00  9.11D-01  1.05D+00  1.47D+00
                    CP:  1.50D+00  2.16D+00  1.89D+00  1.86D+00  1.93D+00
                    CP:  2.05D+00  1.50D+00
 E= -1831.10080950247     Delta-E=       -0.000000412057 Rises=F Damp=F
 DIIS: error= 5.52D-06 at cycle  13 NSaved=  13.
 NSaved=13 IEnMin=13 EnMin= -1831.10080950247     IErMin=13 ErrMin= 5.52D-06
 ErrMax= 5.52D-06  0.00D+00 EMaxC= 1.00D-01 BMatC= 8.02D-08 BMatP= 2.15D-07
 IDIUse=1 WtCom= 1.00D+00 WtEn= 0.00D+00
 Coeff-Com: -0.228D-04 0.399D-04-0.330D-03-0.109D-02-0.253D-02-0.228D-02
 Coeff-Com:  0.148D-01 0.295D-01-0.269D-01-0.159D+00-0.158D+00 0.417D+00
 Coeff-Com:  0.888D+00
 Coeff:     -0.228D-04 0.399D-04-0.330D-03-0.109D-02-0.253D-02-0.228D-02
 Coeff:      0.148D-01 0.295D-01-0.269D-01-0.159D+00-0.158D+00 0.417D+00
 Coeff:      0.888D+00
 Gap=     0.108 Goal=   None    Shift=    0.000
 Gap=     0.155 Goal=   None    Shift=    0.000
 RMSDP=5.56D-07 MaxDP=8.74D-05 DE=-4.12D-07 OVMax= 4.70D-04

 Cycle  14  Pass 1  IDiag  1:
 RMSU=  1.95D-07    CP:  9.62D-01  2.53D+00  9.11D-01  1.05D+00  1.47D+00
                    CP:  1.50D+00  2.17D+00  1.91D+00  1.87D+00  2.04D+00
                    CP:  2.34D+00  1.94D+00  1.38D+00
 E= -1831.10080963934     Delta-E=       -0.000000136863 Rises=F Damp=F
 DIIS: error= 3.14D-06 at cycle  14 NSaved=  14.
 NSaved=14 IEnMin=14 EnMin= -1831.10080963934     IErMin=14 ErrMin= 3.14D-06
 ErrMax= 3.14D-06  0.00D+00 EMaxC= 1.00D-01 BMatC= 3.14D-08 BMatP= 8.02D-08
 IDIUse=1 WtCom= 1.00D+00 WtEn= 0.00D+00
 Coeff-Com: -0.411D-04 0.701D-04 0.280D-03 0.387D-03-0.809D-03-0.783D-02
 Coeff-Com: -0.293D-02 0.223D-01 0.420D-01-0.406D-01-0.224D+00-0.597D-01
 Coeff-Com:  0.513D+00 0.759D+00
 Coeff:     -0.411D-04 0.701D-04 0.280D-03 0.387D-03-0.809D-03-0.783D-02
 Coeff:     -0.293D-02 0.223D-01 0.420D-01-0.406D-01-0.224D+00-0.597D-01
 Coeff:      0.513D+00 0.759D+00
 Gap=     0.108 Goal=   None    Shift=    0.000
 Gap=     0.155 Goal=   None    Shift=    0.000
 RMSDP=2.83D-07 MaxDP=4.09D-05 DE=-1.37D-07 OVMax= 2.54D-04

 Cycle  15  Pass 1  IDiag  1:
 RMSU=  1.08D-07    CP:  9.62D-01  2.53D+00  9.11D-01  1.05D+00  1.48D+00
                    CP:  1.50D+00  2.17D+00  1.92D+00  1.88D+00  2.09D+00
                    CP:  2.48D+00  2.16D+00  1.77D+00  1.22D+00
 E= -1831.10080967546     Delta-E=       -0.000000036118 Rises=F Damp=F
 DIIS: error= 1.50D-06 at cycle  15 NSaved=  15.
 NSaved=15 IEnMin=15 EnMin= -1831.10080967546     IErMin=15 ErrMin= 1.50D-06
 ErrMax= 1.50D-06  0.00D+00 EMaxC= 1.00D-01 BMatC= 6.78D-09 BMatP= 3.14D-08
 IDIUse=1 WtCom= 1.00D+00 WtEn= 0.00D+00
 Coeff-Com: -0.732D-05 0.129D-04 0.211D-03 0.487D-03 0.462D-03-0.249D-02
 Coeff-Com: -0.597D-02 0.934D-03 0.247D-01 0.303D-01-0.457D-01-0.145D+00
 Coeff-Com: -0.663D-01 0.330D+00 0.878D+00
 Coeff:     -0.732D-05 0.129D-04 0.211D-03 0.487D-03 0.462D-03-0.249D-02
 Coeff:     -0.597D-02 0.934D-03 0.247D-01 0.303D-01-0.457D-01-0.145D+00
 Coeff:     -0.663D-01 0.330D+00 0.878D+00
 Gap=     0.108 Goal=   None    Shift=    0.000
 Gap=     0.155 Goal=   None    Shift=    0.000
 RMSDP=1.33D-07 MaxDP=1.74D-05 DE=-3.61D-08 OVMax= 1.16D-04

 Cycle  16  Pass 1  IDiag  1:
 RMSU=  5.07D-08    CP:  9.62D-01  2.53D+00  9.11D-01  1.05D+00  1.48D+00
                    CP:  1.50D+00  2.17D+00  1.92D+00  1.89D+00  2.10D+00
                    CP:  2.53D+00  2.26D+00  1.91D+00  1.54D+00  1.28D+00
 E= -1831.10080968366     Delta-E=       -0.000000008205 Rises=F Damp=F
 DIIS: error= 8.21D-07 at cycle  16 NSaved=  16.
 NSaved=16 IEnMin=16 EnMin= -1831.10080968366     IErMin=16 ErrMin= 8.21D-07
 ErrMax= 8.21D-07  0.00D+00 EMaxC= 1.00D-01 BMatC= 1.98D-09 BMatP= 6.78D-09
 IDIUse=1 WtCom= 1.00D+00 WtEn= 0.00D+00
 Coeff-Com:  0.533D-05-0.833D-05 0.379D-04 0.138D-03 0.356D-03 0.590D-03
 Coeff-Com: -0.226D-02-0.456D-02 0.223D-02 0.244D-01 0.295D-01-0.558D-01
 Coeff-Com: -0.156D+00-0.145D-01 0.426D+00 0.750D+00
 Coeff:      0.533D-05-0.833D-05 0.379D-04 0.138D-03 0.356D-03 0.590D-03
 Coeff:     -0.226D-02-0.456D-02 0.223D-02 0.244D-01 0.295D-01-0.558D-01
 Coeff:     -0.156D+00-0.145D-01 0.426D+00 0.750D+00
 Gap=     0.108 Goal=   None    Shift=    0.000
 Gap=     0.155 Goal=   None    Shift=    0.000
 RMSDP=5.20D-08 MaxDP=5.17D-06 DE=-8.21D-09 OVMax= 3.07D-05

 Cycle  17  Pass 1  IDiag  1:
 RMSU=  2.63D-08    CP:  9.62D-01  2.53D+00  9.11D-01  1.05D+00  1.48D+00
                    CP:  1.50D+00  2.17D+00  1.92D+00  1.89D+00  2.11D+00
                    CP:  2.54D+00  2.28D+00  1.98D+00  1.65D+00  1.49D+00
                    CP:  1.18D+00
 E= -1831.10080968512     Delta-E=       -0.000000001454 Rises=F Damp=F
 DIIS: error= 3.40D-07 at cycle  17 NSaved=  17.
 NSaved=17 IEnMin=17 EnMin= -1831.10080968512     IErMin=17 ErrMin= 3.40D-07
 ErrMax= 3.40D-07  0.00D+00 EMaxC= 1.00D-01 BMatC= 3.81D-10 BMatP= 1.98D-09
 IDIUse=1 WtCom= 1.00D+00 WtEn= 0.00D+00
 Coeff-Com:  0.418D-05-0.689D-05-0.453D-04-0.850D-04-0.133D-04 0.101D-02
 Coeff-Com:  0.851D-03-0.215D-02-0.604D-02 0.142D-02 0.253D-01 0.208D-01
 Coeff-Com: -0.431D-01-0.103D+00-0.955D-01 0.283D+00 0.918D+00
 Coeff:      0.418D-05-0.689D-05-0.453D-04-0.850D-04-0.133D-04 0.101D-02
 Coeff:      0.851D-03-0.215D-02-0.604D-02 0.142D-02 0.253D-01 0.208D-01
 Coeff:     -0.431D-01-0.103D+00-0.955D-01 0.283D+00 0.918D+00
 Gap=     0.108 Goal=   None    Shift=    0.000
 Gap=     0.155 Goal=   None    Shift=    0.000
 RMSDP=2.61D-08 MaxDP=4.43D-06 DE=-1.45D-09 OVMax= 1.66D-05

 Cycle  18  Pass 1  IDiag  1:
 RMSU=  1.14D-08    CP:  9.62D-01  2.53D+00  9.11D-01  1.05D+00  1.48D+00
                    CP:  1.50D+00  2.17D+00  1.92D+00  1.89D+00  2.11D+00
                    CP:  2.54D+00  2.28D+00  1.99D+00  1.69D+00  1.58D+00
                    CP:  1.44D+00  1.47D+00
 E= -1831.10080968543     Delta-E=       -0.000000000311 Rises=F Damp=F
 DIIS: error= 1.50D-07 at cycle  18 NSaved=  18.
 NSaved=18 IEnMin=18 EnMin= -1831.10080968543     IErMin=18 ErrMin= 1.50D-07
 ErrMax= 1.50D-07  0.00D+00 EMaxC= 1.00D-01 BMatC= 7.87D-11 BMatP= 3.81D-10
 IDIUse=1 WtCom= 1.00D+00 WtEn= 0.00D+00
 Coeff-Com:  0.708D-06-0.142D-05-0.184D-04-0.447D-04-0.690D-04 0.191D-03
 Coeff-Com:  0.656D-03 0.791D-04-0.201D-02-0.410D-02 0.171D-02 0.169D-01
 Coeff-Com:  0.190D-01-0.298D-01-0.121D+00-0.522D-01 0.302D+00 0.869D+00
 Coeff:      0.708D-06-0.142D-05-0.184D-04-0.447D-04-0.690D-04 0.191D-03
 Coeff:      0.656D-03 0.791D-04-0.201D-02-0.410D-02 0.171D-02 0.169D-01
 Coeff:      0.190D-01-0.298D-01-0.121D+00-0.522D-01 0.302D+00 0.869D+00
 Gap=     0.108 Goal=   None    Shift=    0.000
 Gap=     0.155 Goal=   None    Shift=    0.000
 RMSDP=1.19D-08 MaxDP=1.29D-06 DE=-3.11D-10 OVMax= 8.41D-06

 Cycle  19  Pass 1  IDiag  1:
 RMSU=  5.58D-09    CP:  9.62D-01  2.53D+00  9.11D-01  1.05D+00  1.48D+00
                    CP:  1.50D+00  2.17D+00  1.92D+00  1.89D+00  2.10D+00
                    CP:  2.54D+00  2.28D+00  1.99D+00  1.70D+00  1.60D+00
                    CP:  1.54D+00  1.70D+00  1.42D+00
 E= -1831.10080968544     Delta-E=       -0.000000000015 Rises=F Damp=F
 DIIS: error= 7.85D-08 at cycle  19 NSaved=  19.
 NSaved=19 IEnMin=19 EnMin= -1831.10080968544     IErMin=19 ErrMin= 7.85D-08
 ErrMax= 7.85D-08  0.00D+00 EMaxC= 1.00D-01 BMatC= 1.65D-11 BMatP= 7.87D-11
 IDIUse=1 WtCom= 1.00D+00 WtEn= 0.00D+00
 Coeff-Com: -0.146D-05 0.232D-05 0.613D-05 0.616D-05-0.224D-04-0.212D-03
 Coeff-Com:  0.375D-04 0.535D-03 0.983D-03-0.143D-02-0.551D-02-0.211D-03
 Coeff-Com:  0.167D-01 0.150D-01-0.168D-01-0.808D-01-0.138D+00 0.255D+00
 Coeff-Com:  0.954D+00
 Coeff:     -0.146D-05 0.232D-05 0.613D-05 0.616D-05-0.224D-04-0.212D-03
 Coeff:      0.375D-04 0.535D-03 0.983D-03-0.143D-02-0.551D-02-0.211D-03
 Coeff:      0.167D-01 0.150D-01-0.168D-01-0.808D-01-0.138D+00 0.255D+00
 Coeff:      0.954D+00
 Gap=     0.108 Goal=   None    Shift=    0.000
 Gap=     0.155 Goal=   None    Shift=    0.000
 RMSDP=7.02D-09 MaxDP=6.53D-07 DE=-1.46D-11 OVMax= 6.50D-06

 Error on total polarization charges =  0.02484
 SCF Done:  E(UM062X) =  -1831.10080969     A.U. after   19 cycles
            NFock= 19  Conv=0.70D-08     -V/T= 2.0054
 <Sx>= 0.0000 <Sy>= 0.0000 <Sz>= 0.5000 <S**2>= 0.7706 S= 0.5102
 <L.S>= 0.000000000000E+00
 KE= 1.821202462886D+03 PE=-1.288856302191D+04 EE= 4.941078999115D+03
 Annihilation of the first spin contaminant:
 S**2 before annihilation     0.7706,   after     0.7503
 Leave Link  502 at Fri Nov  7 13:43:52 2025, MaxMem= 30870077440 cpu:           94926.3 elap:            1502.3
 (Enter /public/software/gauss/g16/l601.exe)
 Copying SCF densities to generalized density rwf, IOpCl= 1 IROHF=0.

 **********************************************************************

            Population analysis using the SCF density.

 **********************************************************************

 Orbital symmetries:
 Alpha Orbitals:
       Occupied  (A) (A) (A) (A) (A) (A) (A) (A) (A) (A) (A) (A)
                 (A) (A) (A) (A) (A) (A) (A) (A) (A) (A) (A) (A)
                 (A) (A) (A) (A) (A) (A) (A) (A) (A) (A) (A) (A)
                 (A) (A) (A) (A) (A) (A) (A) (A) (A) (A) (A) (A)
                 (A) (A) (A) (A) (A) (A) (A) (A) (A) (A) (A) (A)
                 (A) (A) (A) (A) (A) (A) (A) (A) (A) (A) (A) (A)
                 (A) (A) (A) (A) (A) (A) (A) (A) (A) (A) (A) (A)
                 (A) (A) (A) (A) (A) (A) (A) (A) (A) (A) (A) (A)
                 (A) (A) (A) (A) (A) (A) (A) (A) (A) (A) (A) (A)
                 (A) (A) (A) (A) (A) (A) (A) (A) (A) (A) (A) (A)
                 (A) (A) (A) (A) (A) (A) (A) (A) (A) (A) (A) (A)
                 (A) (A) (A) (A) (A) (A) (A) (A) (A) (A) (A) (A)
                 (A)
       Virtual   (A) (A) (A) (A) (A) (A) (A) (A) (A) (A) (A) (A)
                 (A) (A) (A) (A) (A) (A) (A) (A) (A) (A) (A) (A)
                 (A) (A) (A) (A) (A) (A) (A) (A) (A) (A) (A) (A)
                 (A) (A) (A) (A) (A) (A) (A) (A) (A) (A) (A) (A)
                 (A) (A) (A) (A) (A) (A) (A) (A) (A) (A) (A) (A)
                 (A) (A) (A) (A) (A) (A) (A) (A) (A) (A) (A) (A)
                 (A) (A) (A) (A) (A) (A) (A) (A) (A) (A) (A) (A)
                 (A) (A) (A) (A) (A) (A) (A) (A) (A) (A) (A) (A)
                 (A) (A) (A) (A) (A) (A) (A) (A) (A) (A) (A) (A)
                 (A) (A) (A) (A) (A) (A) (A) (A) (A) (A) (A) (A)
                 (A) (A) (A) (A) (A) (A) (A) (A) (A) (A) (A) (A)
                 (A) (A) (A) (A) (A) (A) (A) (A) (A) (A) (A) (A)
                 (A) (A) (A) (A) (A) (A) (A) (A) (A) (A) (A) (A)
                 (A) (A) (A) (A) (A) (A) (A) (A) (A) (A) (A) (A)
                 (A) (A) (A) (A) (A) (A) (A) (A) (A) (A) (A) (A)
                 (A) (A) (A) (A) (A) (A) (A) (A) (A) (A) (A) (A)
                 (A) (A) (A) (A) (A) (A) (A) (A) (A) (A) (A) (A)
                 (A) (A) (A) (A) (A) (A) (A) (A) (A) (A) (A) (A)
                 (A) (A) (A) (A) (A) (A) (A) (A) (A) (A) (A) (A)
                 (A) (A) (A) (A) (A) (A) (A) (A) (A) (A) (A) (A)
                 (A) (A) (A) (A) (A) (A) (A) (A) (A) (A) (A) (A)
                 (A) (A) (A) (A) (A) (A) (A) (A) (A) (A) (A) (A)
                 (A) (A) (A) (A) (A) (A) (A) (A) (A) (A) (A) (A)
                 (A) (A) (A) (A) (A) (A) (A) (A) (A) (A) (A) (A)
                 (A) (A) (A) (A) (A) (A) (A) (A) (A) (A) (A) (A)
                 (A) (A) (A) (A) (A) (A) (A) (A) (A) (A) (A) (A)
                 (A) (A) (A) (A) (A) (A) (A) (A) (A) (A) (A) (A)
                 (A) (A) (A) (A) (A) (A) (A) (A) (A) (A) (A) (A)
                 (A) (A) (A) (A) (A) (A) (A) (A) (A) (A) (A) (A)
                 (A) (A) (A) (A) (A) (A) (A) (A) (A) (A) (A) (A)
                 (A) (A) (A) (A) (A) (A) (A) (A) (A) (A) (A) (A)
                 (A) (A) (A) (A) (A) (A) (A) (A) (A) (A) (A) (A)
                 (A) (A) (A) (A) (A) (A) (A) (A) (A) (A) (A) (A)
                 (A) (A) (A) (A) (A) (A) (A) (A) (A) (A) (A) (A)
                 (A) (A) (A) (A) (A) (A) (A) (A) (A) (A) (A) (A)
                 (A) (A) (A) (A) (A) (A) (A) (A) (A) (A) (A) (A)
                 (A) (A) (A) (A) (A) (A) (A) (A) (A) (A) (A) (A)
                 (A) (A) (A) (A) (A) (A) (A) (A) (A) (A) (A) (A)
                 (A) (A) (A) (A) (A) (A) (A) (A) (A) (A) (A) (A)
                 (A) (A) (A) (A) (A) (A) (A) (A) (A) (A) (A) (A)
                 (A) (A) (A) (A) (A) (A) (A) (A) (A) (A) (A) (A)
                 (A) (A) (A) (A) (A) (A) (A) (A) (A) (A) (A) (A)
                 (A) (A) (A) (A) (A) (A) (A) (A) (A) (A) (A) (A)
                 (A) (A) (A) (A) (A) (A) (A) (A) (A) (A) (A) (A)
                 (A) (A) (A) (A) (A) (A) (A) (A) (A) (A) (A) (A)
                 (A) (A) (A) (A) (A) (A) (A) (A) (A) (A) (A) (A)
                 (A) (A) (A) (A) (A) (A) (A) (A) (A) (A) (A) (A)
                 (A) (A) (A) (A) (A) (A) (A) (A) (A) (A) (A) (A)
                 (A) (A) (A) (A) (A) (A) (A) (A) (A) (A) (A) (A)
                 (A) (A) (A) (A) (A) (A) (A) (A) (A) (A) (A) (A)
                 (A) (A) (A) (A) (A) (A) (A) (A) (A) (A) (A) (A)
                 (A) (A) (A) (A) (A) (A) (A) (A) (A) (A) (A) (A)
                 (A) (A) (A) (A) (A) (A) (A) (A) (A) (A) (A) (A)
                 (A) (A) (A) (A) (A) (A) (A) (A) (A) (A) (A) (A)
                 (A) (A) (A) (A) (A) (A) (A) (A) (A) (A) (A) (A)
                 (A) (A) (A) (A) (A) (A) (A) (A) (A) (A) (A) (A)
                 (A) (A) (A) (A) (A) (A) (A) (A) (A) (A) (A) (A)
                 (A) (A) (A) (A) (A) (A) (A) (A) (A) (A) (A) (A)
                 (A) (A) (A) (A) (A) (A) (A) (A) (A) (A) (A) (A)
                 (A) (A) (A) (A) (A) (A) (A) (A) (A) (A) (A) (A)
                 (A) (A) (A) (A) (A) (A) (A) (A) (A) (A) (A) (A)
                 (A) (A) (A) (A) (A) (A) (A) (A) (A) (A) (A) (A)
                 (A) (A) (A) (A) (A) (A) (A) (A) (A) (A) (A) (A)
                 (A) (A) (A) (A) (A) (A) (A) (A) (A) (A) (A) (A)
                 (A) (A) (A) (A) (A) (A) (A) (A) (A) (A) (A) (A)
                 (A) (A) (A) (A) (A) (A) (A) (A) (A) (A) (A) (A)
                 (A) (A) (A) (A) (A) (A) (A) (A) (A) (A) (A) (A)
                 (A) (A) (A) (A) (A) (A) (A) (A) (A) (A) (A) (A)
                 (A) (A) (A) (A) (A) (A) (A) (A) (A) (A) (A) (A)
                 (A) (A) (A) (A) (A) (A) (A) (A) (A) (A) (A) (A)
                 (A) (A) (A) (A) (A) (A) (A) (A) (A) (A) (A) (A)
                 (A) (A) (A) (A) (A) (A) (A) (A) (A) (A) (A) (A)
                 (A) (A) (A) (A) (A) (A) (A) (A) (A) (A) (A) (A)
                 (A) (A) (A) (A) (A) (A) (A) (A) (A) (A) (A) (A)
                 (A) (A) (A) (A) (A) (A) (A) (A) (A) (A) (A) (A)
                 (A) (A) (A) (A) (A) (A) (A) (A) (A) (A) (A) (A)
                 (A) (A) (A) (A) (A) (A) (A) (A) (A) (A) (A) (A)
                 (A) (A) (A) (A) (A) (A) (A) (A) (A) (A) (A) (A)
                 (A) (A) (A) (A) (A) (A) (A) (A) (A) (A) (A) (A)
                 (A) (A) (A) (A) (A) (A) (A) (A) (A) (A) (A) (A)
                 (A) (A) (A) (A) (A) (A) (A) (A) (A) (A) (A) (A)
                 (A) (A) (A) (A) (A) (A) (A) (A) (A) (A) (A) (A)
                 (A) (A) (A) (A) (A) (A) (A) (A) (A) (A) (A) (A)
                 (A) (A) (A) (A) (A) (A) (A) (A) (A) (A) (A) (A)
                 (A) (A) (A) (A) (A) (A) (A) (A) (A) (A) (A) (A)
                 (A) (A) (A) (A) (A) (A) (A) (A) (A) (A) (A) (A)
                 (A) (A) (A) (A) (A) (A) (A) (A) (A) (A) (A) (A)
                 (A) (A) (A) (A) (A) (A) (A) (A) (A) (A) (A) (A)
                 (A) (A) (A) (A) (A) (A) (A) (A) (A) (A) (A) (A)
                 (A) (A) (A) (A) (A) (A) (A) (A) (A) (A) (A) (A)
                 (A) (A) (A) (A) (A) (A) (A) (A) (A) (A) (A) (A)
                 (A) (A) (A) (A) (A) (A) (A) (A) (A) (A) (A) (A)
                 (A) (A) (A) (A) (A) (A) (A) (A) (A) (A) (A) (A)
                 (A) (A) (A) (A) (A) (A) (A) (A) (A) (A) (A) (A)
                 (A) (A) (A) (A) (A) (A) (A) (A) (A) (A) (A) (A)
                 (A) (A) (A) (A) (A) (A) (A) (A) (A) (A) (A) (A)
                 (A) (A) (A) (A) (A) (A) (A) (A) (A) (A) (A) (A)
                 (A) (A) (A) (A) (A) (A) (A) (A) (A) (A) (A) (A)
                 (A) (A) (A) (A) (A) (A) (A) (A) (A) (A) (A) (A)
                 (A) (A) (A) (A) (A) (A) (A) (A) (A) (A) (A) (A)
                 (A) (A) (A) (A) (A) (A) (A) (A) (A) (A) (A) (A)
                 (A) (A) (A) (A) (A) (A) (A) (A) (A) (A) (A) (A)
                 (A) (A) (A) (A) (A) (A) (A) (A) (A) (A) (A) (A)
                 (A) (A) (A) (A) (A) (A) (A) (A) (A) (A) (A) (A)
                 (A) (A) (A) (A) (A) (A) (A) (A) (A) (A) (A) (A)
                 (A) (A) (A) (A) (A) (A) (A) (A) (A) (A) (A) (A)
                 (A) (A) (A) (A) (A) (A) (A) (A) (A) (A) (A) (A)
                 (A) (A) (A) (A) (A) (A) (A) (A) (A) (A) (A) (A)
                 (A) (A) (A) (A) (A) (A) (A) (A) (A) (A) (A) (A)
                 (A) (A) (A) (A) (A) (A) (A) (A) (A) (A) (A) (A)
                 (A) (A) (A) (A) (A) (A) (A) (A) (A) (A) (A) (A)
                 (A) (A) (A) (A) (A) (A) (A) (A) (A) (A) (A) (A)
                 (A) (A) (A) (A) (A) (A) (A) (A) (A) (A) (A) (A)
                 (A) (A) (A) (A) (A) (A) (A) (A) (A) (A) (A) (A)
                 (A) (A) (A) (A) (A) (A) (A) (A) (A) (A) (A) (A)
                 (A) (A) (A) (A) (A) (A) (A) (A) (A) (A) (A) (A)
                 (A) (A) (A) (A) (A) (A) (A) (A) (A) (A) (A) (A)
                 (A) (A) (A) (A) (A) (A) (A) (A) (A) (A) (A) (A)
                 (A) (A) (A) (A) (A) (A) (A) (A) (A) (A) (A) (A)
                 (A) (A) (A) (A) (A) (A) (A) (A) (A) (A) (A) (A)
                 (A) (A) (A) (A) (A) (A) (A) (A) (A) (A) (A) (A)
                 (A) (A) (A) (A) (A) (A) (A) (A) (A) (A) (A) (A)
                 (A) (A) (A) (A) (A) (A) (A) (A) (A) (A) (A) (A)
                 (A) (A) (A) (A) (A) (A) (A) (A) (A) (A) (A) (A)
                 (A) (A) (A) (A) (A) (A) (A) (A) (A) (A) (A) (A)
                 (A) (A) (A) (A) (A) (A) (A) (A) (A) (A) (A) (A)
                 (A) (A) (A) (A) (A) (A) (A) (A) (A) (A) (A) (A)
                 (A) (A) (A) (A) (A) (A) (A) (A)
 Beta  Orbitals:
       Occupied  (A) (A) (A) (A) (A) (A) (A) (A) (A) (A) (A) (A)
                 (A) (A) (A) (A) (A) (A) (A) (A) (A) (A) (A) (A)
                 (A) (A) (A) (A) (A) (A) (A) (A) (A) (A) (A) (A)
                 (A) (A) (A) (A) (A) (A) (A) (A) (A) (A) (A) (A)
                 (A) (A) (A) (A) (A) (A) (A) (A) (A) (A) (A) (A)
                 (A) (A) (A) (A) (A) (A) (A) (A) (A) (A) (A) (A)
                 (A) (A) (A) (A) (A) (A) (A) (A) (A) (A) (A) (A)
                 (A) (A) (A) (A) (A) (A) (A) (A) (A) (A) (A) (A)
                 (A) (A) (A) (A) (A) (A) (A) (A) (A) (A) (A) (A)
                 (A) (A) (A) (A) (A) (A) (A) (A) (A) (A) (A) (A)
                 (A) (A) (A) (A) (A) (A) (A) (A) (A) (A) (A) (A)
                 (A) (A) (A) (A) (A) (A) (A) (A) (A) (A) (A) (A)
       Virtual   (A) (A) (A) (A) (A) (A) (A) (A) (A) (A) (A) (A)
                 (A) (A) (A) (A) (A) (A) (A) (A) (A) (A) (A) (A)
                 (A) (A) (A) (A) (A) (A) (A) (A) (A) (A) (A) (A)
                 (A) (A) (A) (A) (A) (A) (A) (A) (A) (A) (A) (A)
                 (A) (A) (A) (A) (A) (A) (A) (A) (A) (A) (A) (A)
                 (A) (A) (A) (A) (A) (A) (A) (A) (A) (A) (A) (A)
                 (A) (A) (A) (A) (A) (A) (A) (A) (A) (A) (A) (A)
                 (A) (A) (A) (A) (A) (A) (A) (A) (A) (A) (A) (A)
                 (A) (A) (A) (A) (A) (A) (A) (A) (A) (A) (A) (A)
                 (A) (A) (A) (A) (A) (A) (A) (A) (A) (A) (A) (A)
                 (A) (A) (A) (A) (A) (A) (A) (A) (A) (A) (A) (A)
                 (A) (A) (A) (A) (A) (A) (A) (A) (A) (A) (A) (A)
                 (A) (A) (A) (A) (A) (A) (A) (A) (A) (A) (A) (A)
                 (A) (A) (A) (A) (A) (A) (A) (A) (A) (A) (A) (A)
                 (A) (A) (A) (A) (A) (A) (A) (A) (A) (A) (A) (A)
                 (A) (A) (A) (A) (A) (A) (A) (A) (A) (A) (A) (A)
                 (A) (A) (A) (A) (A) (A) (A) (A) (A) (A) (A) (A)
                 (A) (A) (A) (A) (A) (A) (A) (A) (A) (A) (A) (A)
                 (A) (A) (A) (A) (A) (A) (A) (A) (A) (A) (A) (A)
                 (A) (A) (A) (A) (A) (A) (A) (A) (A) (A) (A) (A)
                 (A) (A) (A) (A) (A) (A) (A) (A) (A) (A) (A) (A)
                 (A) (A) (A) (A) (A) (A) (A) (A) (A) (A) (A) (A)
                 (A) (A) (A) (A) (A) (A) (A) (A) (A) (A) (A) (A)
                 (A) (A) (A) (A) (A) (A) (A) (A) (A) (A) (A) (A)
                 (A) (A) (A) (A) (A) (A) (A) (A) (A) (A) (A) (A)
                 (A) (A) (A) (A) (A) (A) (A) (A) (A) (A) (A) (A)
                 (A) (A) (A) (A) (A) (A) (A) (A) (A) (A) (A) (A)
                 (A) (A) (A) (A) (A) (A) (A) (A) (A) (A) (A) (A)
                 (A) (A) (A) (A) (A) (A) (A) (A) (A) (A) (A) (A)
                 (A) (A) (A) (A) (A) (A) (A) (A) (A) (A) (A) (A)
                 (A) (A) (A) (A) (A) (A) (A) (A) (A) (A) (A) (A)
                 (A) (A) (A) (A) (A) (A) (A) (A) (A) (A) (A) (A)
                 (A) (A) (A) (A) (A) (A) (A) (A) (A) (A) (A) (A)
                 (A) (A) (A) (A) (A) (A) (A) (A) (A) (A) (A) (A)
                 (A) (A) (A) (A) (A) (A) (A) (A) (A) (A) (A) (A)
                 (A) (A) (A) (A) (A) (A) (A) (A) (A) (A) (A) (A)
                 (A) (A) (A) (A) (A) (A) (A) (A) (A) (A) (A) (A)
                 (A) (A) (A) (A) (A) (A) (A) (A) (A) (A) (A) (A)
                 (A) (A) (A) (A) (A) (A) (A) (A) (A) (A) (A) (A)
                 (A) (A) (A) (A) (A) (A) (A) (A) (A) (A) (A) (A)
                 (A) (A) (A) (A) (A) (A) (A) (A) (A) (A) (A) (A)
                 (A) (A) (A) (A) (A) (A) (A) (A) (A) (A) (A) (A)
                 (A) (A) (A) (A) (A) (A) (A) (A) (A) (A) (A) (A)
                 (A) (A) (A) (A) (A) (A) (A) (A) (A) (A) (A) (A)
                 (A) (A) (A) (A) (A) (A) (A) (A) (A) (A) (A) (A)
                 (A) (A) (A) (A) (A) (A) (A) (A) (A) (A) (A) (A)
                 (A) (A) (A) (A) (A) (A) (A) (A) (A) (A) (A) (A)
                 (A) (A) (A) (A) (A) (A) (A) (A) (A) (A) (A) (A)
                 (A) (A) (A) (A) (A) (A) (A) (A) (A) (A) (A) (A)
                 (A) (A) (A) (A) (A) (A) (A) (A) (A) (A) (A) (A)
                 (A) (A) (A) (A) (A) (A) (A) (A) (A) (A) (A) (A)
                 (A) (A) (A) (A) (A) (A) (A) (A) (A) (A) (A) (A)
                 (A) (A) (A) (A) (A) (A) (A) (A) (A) (A) (A) (A)
                 (A) (A) (A) (A) (A) (A) (A) (A) (A) (A) (A) (A)
                 (A) (A) (A) (A) (A) (A) (A) (A) (A) (A) (A) (A)
                 (A) (A) (A) (A) (A) (A) (A) (A) (A) (A) (A) (A)
                 (A) (A) (A) (A) (A) (A) (A) (A) (A) (A) (A) (A)
                 (A) (A) (A) (A) (A) (A) (A) (A) (A) (A) (A) (A)
                 (A) (A) (A) (A) (A) (A) (A) (A) (A) (A) (A) (A)
                 (A) (A) (A) (A) (A) (A) (A) (A) (A) (A) (A) (A)
                 (A) (A) (A) (A) (A) (A) (A) (A) (A) (A) (A) (A)
                 (A) (A) (A) (A) (A) (A) (A) (A) (A) (A) (A) (A)
                 (A) (A) (A) (A) (A) (A) (A) (A) (A) (A) (A) (A)
                 (A) (A) (A) (A) (A) (A) (A) (A) (A) (A) (A) (A)
                 (A) (A) (A) (A) (A) (A) (A) (A) (A) (A) (A) (A)
                 (A) (A) (A) (A) (A) (A) (A) (A) (A) (A) (A) (A)
                 (A) (A) (A) (A) (A) (A) (A) (A) (A) (A) (A) (A)
                 (A) (A) (A) (A) (A) (A) (A) (A) (A) (A) (A) (A)
                 (A) (A) (A) (A) (A) (A) (A) (A) (A) (A) (A) (A)
                 (A) (A) (A) (A) (A) (A) (A) (A) (A) (A) (A) (A)
                 (A) (A) (A) (A) (A) (A) (A) (A) (A) (A) (A) (A)
                 (A) (A) (A) (A) (A) (A) (A) (A) (A) (A) (A) (A)
                 (A) (A) (A) (A) (A) (A) (A) (A) (A) (A) (A) (A)
                 (A) (A) (A) (A) (A) (A) (A) (A) (A) (A) (A) (A)
                 (A) (A) (A) (A) (A) (A) (A) (A) (A) (A) (A) (A)
                 (A) (A) (A) (A) (A) (A) (A) (A) (A) (A) (A) (A)
                 (A) (A) (A) (A) (A) (A) (A) (A) (A) (A) (A) (A)
                 (A) (A) (A) (A) (A) (A) (A) (A) (A) (A) (A) (A)
                 (A) (A) (A) (A) (A) (A) (A) (A) (A) (A) (A) (A)
                 (A) (A) (A) (A) (A) (A) (A) (A) (A) (A) (A) (A)
                 (A) (A) (A) (A) (A) (A) (A) (A) (A) (A) (A) (A)
                 (A) (A) (A) (A) (A) (A) (A) (A) (A) (A) (A) (A)
                 (A) (A) (A) (A) (A) (A) (A) (A) (A) (A) (A) (A)
                 (A) (A) (A) (A) (A) (A) (A) (A) (A) (A) (A) (A)
                 (A) (A) (A) (A) (A) (A) (A) (A) (A) (A) (A) (A)
                 (A) (A) (A) (A) (A) (A) (A) (A) (A) (A) (A) (A)
                 (A) (A) (A) (A) (A) (A) (A) (A) (A) (A) (A) (A)
                 (A) (A) (A) (A) (A) (A) (A) (A) (A) (A) (A) (A)
                 (A) (A) (A) (A) (A) (A) (A) (A) (A) (A) (A) (A)
                 (A) (A) (A) (A) (A) (A) (A) (A) (A) (A) (A) (A)
                 (A) (A) (A) (A) (A) (A) (A) (A) (A) (A) (A) (A)
                 (A) (A) (A) (A) (A) (A) (A) (A) (A) (A) (A) (A)
                 (A) (A) (A) (A) (A) (A) (A) (A) (A) (A) (A) (A)
                 (A) (A) (A) (A) (A) (A) (A) (A) (A) (A) (A) (A)
                 (A) (A) (A) (A) (A) (A) (A) (A) (A) (A) (A) (A)
                 (A) (A) (A) (A) (A) (A) (A) (A) (A) (A) (A) (A)
                 (A) (A) (A) (A) (A) (A) (A) (A) (A) (A) (A) (A)
                 (A) (A) (A) (A) (A) (A) (A) (A) (A) (A) (A) (A)
                 (A) (A) (A) (A) (A) (A) (A) (A) (A) (A) (A) (A)
                 (A) (A) (A) (A) (A) (A) (A) (A) (A) (A) (A) (A)
                 (A) (A) (A) (A) (A) (A) (A) (A) (A) (A) (A) (A)
                 (A) (A) (A) (A) (A) (A) (A) (A) (A) (A) (A) (A)
                 (A) (A) (A) (A) (A) (A) (A) (A) (A) (A) (A) (A)
                 (A) (A) (A) (A) (A) (A) (A) (A) (A) (A) (A) (A)
                 (A) (A) (A) (A) (A) (A) (A) (A) (A) (A) (A) (A)
                 (A) (A) (A) (A) (A) (A) (A) (A) (A) (A) (A) (A)
                 (A) (A) (A) (A) (A) (A) (A) (A) (A) (A) (A) (A)
                 (A) (A) (A) (A) (A) (A) (A) (A) (A) (A) (A) (A)
                 (A) (A) (A) (A) (A) (A) (A) (A) (A) (A) (A) (A)
                 (A) (A) (A) (A) (A) (A) (A) (A) (A) (A) (A) (A)
                 (A) (A) (A) (A) (A) (A) (A) (A) (A) (A) (A) (A)
                 (A) (A) (A) (A) (A) (A) (A) (A) (A) (A) (A) (A)
                 (A) (A) (A) (A) (A) (A) (A) (A) (A) (A) (A) (A)
                 (A) (A) (A) (A) (A) (A) (A) (A) (A) (A) (A) (A)
                 (A) (A) (A) (A) (A) (A) (A) (A) (A) (A) (A) (A)
                 (A) (A) (A) (A) (A) (A) (A) (A) (A) (A) (A) (A)
                 (A) (A) (A) (A) (A) (A) (A) (A) (A) (A) (A) (A)
                 (A) (A) (A) (A) (A) (A) (A) (A) (A) (A) (A) (A)
                 (A) (A) (A) (A) (A) (A) (A) (A) (A) (A) (A) (A)
                 (A) (A) (A) (A) (A) (A) (A) (A) (A) (A) (A) (A)
                 (A) (A) (A) (A) (A) (A) (A) (A) (A) (A) (A) (A)
                 (A) (A) (A) (A) (A) (A) (A) (A) (A) (A) (A) (A)
                 (A) (A) (A) (A) (A) (A) (A) (A) (A) (A) (A) (A)
                 (A) (A) (A) (A) (A) (A) (A) (A) (A) (A) (A) (A)
                 (A) (A) (A) (A) (A) (A) (A) (A) (A) (A) (A) (A)
                 (A) (A) (A) (A) (A) (A) (A) (A) (A) (A) (A) (A)
                 (A) (A) (A) (A) (A) (A) (A) (A) (A) (A) (A) (A)
                 (A) (A) (A) (A) (A) (A) (A) (A) (A)
 The electronic state is 2-A.
 Alpha  occ. eigenvalues --  -25.19274 -25.19109 -19.66599 -19.66594 -15.00173
 Alpha  occ. eigenvalues --  -14.76683 -14.76359 -14.75823 -10.60306 -10.58217
 Alpha  occ. eigenvalues --  -10.58090 -10.57113 -10.57045 -10.56999 -10.56790
 Alpha  occ. eigenvalues --  -10.56325 -10.56065 -10.56064 -10.55858 -10.55820
 Alpha  occ. eigenvalues --  -10.55740 -10.55071 -10.55063 -10.54879 -10.54770
 Alpha  occ. eigenvalues --  -10.54575 -10.54509 -10.54176 -10.54099 -10.54035
 Alpha  occ. eigenvalues --  -10.53739 -10.53711 -10.53355 -10.53289 -10.53285
 Alpha  occ. eigenvalues --  -10.53061 -10.52947 -10.52799 -10.52785 -10.52269
 Alpha  occ. eigenvalues --   -7.11292  -1.34919  -1.31025  -1.27747  -1.16406
 Alpha  occ. eigenvalues --   -1.08348  -1.06222  -1.05145  -0.99537  -0.96887
 Alpha  occ. eigenvalues --   -0.95170  -0.92805  -0.90651  -0.88262  -0.87677
 Alpha  occ. eigenvalues --   -0.86794  -0.86556  -0.86026  -0.84368  -0.83194
 Alpha  occ. eigenvalues --   -0.81541  -0.80545  -0.78822  -0.78520  -0.77821
 Alpha  occ. eigenvalues --   -0.76553  -0.74526  -0.72932  -0.71013  -0.69723
 Alpha  occ. eigenvalues --   -0.68622  -0.67292  -0.66538  -0.65156  -0.64929
 Alpha  occ. eigenvalues --   -0.64849  -0.64152  -0.63779  -0.63212  -0.61987
 Alpha  occ. eigenvalues --   -0.61295  -0.60579  -0.59386  -0.58240  -0.57671
 Alpha  occ. eigenvalues --   -0.56963  -0.55298  -0.55001  -0.54463  -0.53866
 Alpha  occ. eigenvalues --   -0.53616  -0.52947  -0.52469  -0.52125  -0.51846
 Alpha  occ. eigenvalues --   -0.50815  -0.50441  -0.49974  -0.49915  -0.49373
 Alpha  occ. eigenvalues --   -0.49232  -0.48945  -0.48672  -0.48393  -0.47929
 Alpha  occ. eigenvalues --   -0.47578  -0.47098  -0.46877  -0.46501  -0.46437
 Alpha  occ. eigenvalues --   -0.46252  -0.46041  -0.45780  -0.45656  -0.45462
 Alpha  occ. eigenvalues --   -0.45168  -0.45112  -0.44449  -0.43956  -0.43611
 Alpha  occ. eigenvalues --   -0.43450  -0.43056  -0.42303  -0.41456  -0.41146
 Alpha  occ. eigenvalues --   -0.40380  -0.40232  -0.39652  -0.39388  -0.38665
 Alpha  occ. eigenvalues --   -0.38587  -0.38455  -0.38376  -0.37045  -0.36063
 Alpha  occ. eigenvalues --   -0.33913  -0.33145  -0.30934  -0.30531  -0.29201
 Alpha  occ. eigenvalues --   -0.29137  -0.28637  -0.26581  -0.23485  -0.18145
 Alpha virt. eigenvalues --   -0.07303   0.00488   0.01363   0.01900   0.02000
 Alpha virt. eigenvalues --    0.02047   0.02597   0.06057   0.07021   0.07432
 Alpha virt. eigenvalues --    0.08091   0.08323   0.08731   0.08947   0.09241
 Alpha virt. eigenvalues --    0.10115   0.10194   0.10794   0.10855   0.10949
 Alpha virt. eigenvalues --    0.11425   0.11572   0.11747   0.11910   0.12360
 Alpha virt. eigenvalues --    0.12576   0.12943   0.13350   0.13653   0.14085
 Alpha virt. eigenvalues --    0.14684   0.14812   0.14939   0.15018   0.15467
 Alpha virt. eigenvalues --    0.15796   0.16199   0.16307   0.16777   0.16926
 Alpha virt. eigenvalues --    0.17425   0.17601   0.17960   0.17989   0.18062
 Alpha virt. eigenvalues --    0.18432   0.18803   0.19411   0.19608   0.19760
 Alpha virt. eigenvalues --    0.19796   0.20331   0.20607   0.21272   0.21558
 Alpha virt. eigenvalues --    0.21673   0.21889   0.22228   0.22341   0.22722
 Alpha virt. eigenvalues --    0.22754   0.22856   0.23340   0.23423   0.23705
 Alpha virt. eigenvalues --    0.24005   0.24072   0.24243   0.24658   0.24858
 Alpha virt. eigenvalues --    0.25152   0.25536   0.25722   0.26185   0.26403
 Alpha virt. eigenvalues --    0.26781   0.26953   0.27031   0.27292   0.27436
 Alpha virt. eigenvalues --    0.27770   0.28093   0.28283   0.28450   0.28727
 Alpha virt. eigenvalues --    0.29006   0.29536   0.30179   0.30236   0.30794
 Alpha virt. eigenvalues --    0.31037   0.31183   0.31761   0.32099   0.32371
 Alpha virt. eigenvalues --    0.32672   0.32726   0.33110   0.33655   0.33711
 Alpha virt. eigenvalues --    0.33854   0.34000   0.34239   0.34499   0.34677
 Alpha virt. eigenvalues --    0.34996   0.35356   0.35426   0.35660   0.36019
 Alpha virt. eigenvalues --    0.36169   0.36519   0.36652   0.36815   0.37266
 Alpha virt. eigenvalues --    0.37370   0.37640   0.37823   0.38157   0.38417
 Alpha virt. eigenvalues --    0.38656   0.38879   0.38935   0.39300   0.39499
 Alpha virt. eigenvalues --    0.39836   0.40026   0.40206   0.40447   0.40562
 Alpha virt. eigenvalues --    0.40724   0.41029   0.41183   0.41617   0.41856
 Alpha virt. eigenvalues --    0.42034   0.42270   0.42598   0.42765   0.43154
 Alpha virt. eigenvalues --    0.43179   0.43285   0.43597   0.44095   0.44425
 Alpha virt. eigenvalues --    0.44590   0.44803   0.44993   0.45147   0.45484
 Alpha virt. eigenvalues --    0.45731   0.45987   0.46225   0.46784   0.46982
 Alpha virt. eigenvalues --    0.47066   0.47132   0.47451   0.47545   0.47816
 Alpha virt. eigenvalues --    0.47944   0.48322   0.48459   0.48590   0.48978
 Alpha virt. eigenvalues --    0.49123   0.49505   0.49782   0.50144   0.50173
 Alpha virt. eigenvalues --    0.50374   0.50511   0.50630   0.51472   0.51568
 Alpha virt. eigenvalues --    0.51676   0.51951   0.51986   0.52222   0.52393
 Alpha virt. eigenvalues --    0.52679   0.53075   0.53469   0.53626   0.53669
 Alpha virt. eigenvalues --    0.53842   0.54150   0.54438   0.54872   0.55415
 Alpha virt. eigenvalues --    0.55692   0.56142   0.56203   0.56727   0.56867
 Alpha virt. eigenvalues --    0.57252   0.57615   0.57686   0.58297   0.58395
 Alpha virt. eigenvalues --    0.58806   0.59044   0.59275   0.59604   0.59627
 Alpha virt. eigenvalues --    0.59968   0.60395   0.60667   0.61156   0.61639
 Alpha virt. eigenvalues --    0.61849   0.62286   0.62655   0.63047   0.63378
 Alpha virt. eigenvalues --    0.63536   0.63635   0.63998   0.64304   0.64434
 Alpha virt. eigenvalues --    0.64593   0.64930   0.65399   0.65705   0.66211
 Alpha virt. eigenvalues --    0.66327   0.66821   0.67260   0.67494   0.67869
 Alpha virt. eigenvalues --    0.68070   0.68137   0.68248   0.68414   0.68624
 Alpha virt. eigenvalues --    0.69005   0.69461   0.69659   0.69813   0.70110
 Alpha virt. eigenvalues --    0.70421   0.70633   0.70707   0.71017   0.71481
 Alpha virt. eigenvalues --    0.72089   0.72393   0.72705   0.72968   0.73164
 Alpha virt. eigenvalues --    0.73534   0.73658   0.73839   0.74014   0.74681
 Alpha virt. eigenvalues --    0.75085   0.75349   0.75756   0.76013   0.76283
 Alpha virt. eigenvalues --    0.76747   0.76793   0.77236   0.77410   0.77739
 Alpha virt. eigenvalues --    0.78010   0.78223   0.78492   0.78913   0.79371
 Alpha virt. eigenvalues --    0.79522   0.79744   0.80020   0.80103   0.80809
 Alpha virt. eigenvalues --    0.81148   0.81245   0.81715   0.82318   0.82709
 Alpha virt. eigenvalues --    0.82870   0.82918   0.83003   0.83293   0.83449
 Alpha virt. eigenvalues --    0.83899   0.84406   0.84601   0.84609   0.85249
 Alpha virt. eigenvalues --    0.85340   0.85672   0.85995   0.86236   0.86467
 Alpha virt. eigenvalues --    0.86906   0.87347   0.87524   0.87928   0.88210
 Alpha virt. eigenvalues --    0.88370   0.88606   0.89556   0.89866   0.89987
 Alpha virt. eigenvalues --    0.90225   0.90567   0.91212   0.92010   0.92548
 Alpha virt. eigenvalues --    0.92922   0.93461   0.93738   0.94150   0.94311
 Alpha virt. eigenvalues --    0.94393   0.94972   0.95488   0.96176   0.96594
 Alpha virt. eigenvalues --    0.96691   0.96965   0.97310   0.97571   0.97643
 Alpha virt. eigenvalues --    0.98078   0.98119   0.98379   0.99045   0.99403
 Alpha virt. eigenvalues --    0.99723   1.00022   1.00391   1.00811   1.00895
 Alpha virt. eigenvalues --    1.00970   1.01156   1.01547   1.01820   1.01978
 Alpha virt. eigenvalues --    1.02307   1.02647   1.02981   1.03098   1.03312
 Alpha virt. eigenvalues --    1.03796   1.03978   1.04338   1.04643   1.04953
 Alpha virt. eigenvalues --    1.05023   1.05628   1.06280   1.06505   1.06950
 Alpha virt. eigenvalues --    1.07141   1.07286   1.07512   1.07833   1.08210
 Alpha virt. eigenvalues --    1.08390   1.08831   1.09068   1.09342   1.09422
 Alpha virt. eigenvalues --    1.10251   1.10654   1.10796   1.10984   1.11576
 Alpha virt. eigenvalues --    1.12041   1.12379   1.12661   1.13149   1.13594
 Alpha virt. eigenvalues --    1.14015   1.14529   1.14690   1.14883   1.15744
 Alpha virt. eigenvalues --    1.15970   1.16336   1.16791   1.17198   1.17262
 Alpha virt. eigenvalues --    1.17516   1.18218   1.18612   1.19039   1.19876
 Alpha virt. eigenvalues --    1.20233   1.20586   1.21329   1.21429   1.21618
 Alpha virt. eigenvalues --    1.22129   1.22865   1.22937   1.23288   1.23811
 Alpha virt. eigenvalues --    1.24238   1.24275   1.24837   1.25169   1.25548
 Alpha virt. eigenvalues --    1.26020   1.26294   1.26494   1.26679   1.26744
 Alpha virt. eigenvalues --    1.27229   1.27529   1.27691   1.28138   1.28603
 Alpha virt. eigenvalues --    1.29312   1.29364   1.29505   1.29712   1.29889
 Alpha virt. eigenvalues --    1.30188   1.30464   1.30813   1.30924   1.31374
 Alpha virt. eigenvalues --    1.31601   1.32071   1.32609   1.32796   1.33142
 Alpha virt. eigenvalues --    1.33996   1.34286   1.34373   1.34895   1.35364
 Alpha virt. eigenvalues --    1.35631   1.36220   1.36231   1.37108   1.37167
 Alpha virt. eigenvalues --    1.37781   1.38006   1.38788   1.38988   1.39049
 Alpha virt. eigenvalues --    1.39167   1.39345   1.39818   1.39959   1.40659
 Alpha virt. eigenvalues --    1.41205   1.41431   1.41830   1.42119   1.42326
 Alpha virt. eigenvalues --    1.42769   1.43073   1.43554   1.44308   1.44639
 Alpha virt. eigenvalues --    1.44878   1.45302   1.45842   1.46403   1.46593
 Alpha virt. eigenvalues --    1.46716   1.47035   1.47460   1.47554   1.47959
 Alpha virt. eigenvalues --    1.48841   1.49114   1.49253   1.49593   1.49708
 Alpha virt. eigenvalues --    1.50032   1.50226   1.50640   1.50699   1.51232
 Alpha virt. eigenvalues --    1.51568   1.52160   1.52505   1.52669   1.53034
 Alpha virt. eigenvalues --    1.53128   1.53466   1.53517   1.53843   1.53934
 Alpha virt. eigenvalues --    1.54393   1.54673   1.55012   1.55215   1.55487
 Alpha virt. eigenvalues --    1.55895   1.56036   1.56390   1.56949   1.57105
 Alpha virt. eigenvalues --    1.57395   1.57708   1.58153   1.58393   1.58753
 Alpha virt. eigenvalues --    1.58787   1.58978   1.59571   1.59948   1.60662
 Alpha virt. eigenvalues --    1.61011   1.61519   1.62070   1.62294   1.62722
 Alpha virt. eigenvalues --    1.62947   1.63391   1.64001   1.64426   1.64759
 Alpha virt. eigenvalues --    1.64921   1.65169   1.65226   1.65585   1.66071
 Alpha virt. eigenvalues --    1.66517   1.66786   1.67842   1.68036   1.68150
 Alpha virt. eigenvalues --    1.68746   1.69085   1.69292   1.69463   1.69847
 Alpha virt. eigenvalues --    1.70443   1.70508   1.70962   1.71162   1.71813
 Alpha virt. eigenvalues --    1.72028   1.72406   1.72596   1.73623   1.74505
 Alpha virt. eigenvalues --    1.74863   1.75133   1.75800   1.76117   1.76600
 Alpha virt. eigenvalues --    1.76871   1.77244   1.77610   1.77855   1.78258
 Alpha virt. eigenvalues --    1.78459   1.79149   1.79638   1.80367   1.80564
 Alpha virt. eigenvalues --    1.80967   1.81435   1.81812   1.82161   1.82639
 Alpha virt. eigenvalues --    1.82924   1.83351   1.83763   1.84496   1.85204
 Alpha virt. eigenvalues --    1.85496   1.86286   1.86708   1.86925   1.87074
 Alpha virt. eigenvalues --    1.88471   1.89025   1.89409   1.90057   1.90772
 Alpha virt. eigenvalues --    1.91006   1.91488   1.92144   1.93120   1.93324
 Alpha virt. eigenvalues --    1.93450   1.93788   1.94246   1.94935   1.95869
 Alpha virt. eigenvalues --    1.96103   1.96953   1.97658   1.98237   1.98996
 Alpha virt. eigenvalues --    2.00488   2.00903   2.01449   2.01836   2.02185
 Alpha virt. eigenvalues --    2.02770   2.02836   2.03426   2.03709   2.04079
 Alpha virt. eigenvalues --    2.05057   2.05347   2.05831   2.06001   2.06156
 Alpha virt. eigenvalues --    2.06273   2.07086   2.07307   2.07737   2.08304
 Alpha virt. eigenvalues --    2.08838   2.08979   2.10183   2.10899   2.11222
 Alpha virt. eigenvalues --    2.11568   2.12122   2.12478   2.13012   2.13401
 Alpha virt. eigenvalues --    2.14324   2.14594   2.14718   2.15100   2.16474
 Alpha virt. eigenvalues --    2.17162   2.17778   2.17941   2.18403   2.19238
 Alpha virt. eigenvalues --    2.20510   2.21764   2.22377   2.23575   2.23771
 Alpha virt. eigenvalues --    2.24057   2.24135   2.24750   2.25087   2.25490
 Alpha virt. eigenvalues --    2.25911   2.26485   2.26769   2.26885   2.27242
 Alpha virt. eigenvalues --    2.27841   2.28824   2.29323   2.29901   2.30672
 Alpha virt. eigenvalues --    2.31154   2.32916   2.33240   2.33493   2.34106
 Alpha virt. eigenvalues --    2.34357   2.34868   2.35777   2.36125   2.36813
 Alpha virt. eigenvalues --    2.37336   2.37999   2.38567   2.39607   2.39951
 Alpha virt. eigenvalues --    2.40127   2.40807   2.41853   2.42244   2.42547
 Alpha virt. eigenvalues --    2.42877   2.43556   2.43965   2.44596   2.44785
 Alpha virt. eigenvalues --    2.45847   2.47492   2.47991   2.48349   2.48883
 Alpha virt. eigenvalues --    2.50246   2.50442   2.51324   2.51987   2.52875
 Alpha virt. eigenvalues --    2.53434   2.53737   2.54323   2.54869   2.55072
 Alpha virt. eigenvalues --    2.55610   2.55853   2.57360   2.57775   2.58657
 Alpha virt. eigenvalues --    2.58945   2.59459   2.59834   2.60763   2.61224
 Alpha virt. eigenvalues --    2.61908   2.62204   2.62564   2.62915   2.63398
 Alpha virt. eigenvalues --    2.63587   2.64009   2.64476   2.64835   2.65266
 Alpha virt. eigenvalues --    2.65709   2.66023   2.66565   2.67281   2.67478
 Alpha virt. eigenvalues --    2.68180   2.68318   2.68812   2.69045   2.69723
 Alpha virt. eigenvalues --    2.70176   2.71822   2.72242   2.72475   2.72615
 Alpha virt. eigenvalues --    2.72864   2.73026   2.73599   2.74367   2.74418
 Alpha virt. eigenvalues --    2.74648   2.75088   2.75420   2.75531   2.76011
 Alpha virt. eigenvalues --    2.76243   2.77965   2.78105   2.78256   2.78494
 Alpha virt. eigenvalues --    2.78814   2.79177   2.79606   2.80247   2.80674
 Alpha virt. eigenvalues --    2.81478   2.81570   2.81792   2.82136   2.82632
 Alpha virt. eigenvalues --    2.82742   2.82794   2.83012   2.83032   2.83563
 Alpha virt. eigenvalues --    2.83949   2.84206   2.84244   2.85186   2.85515
[...]
 
              Baa    -0.0035    -0.466    -0.166    -0.156 -0.0844  0.7976 -0.5972
     5 C(13)  Bbb    -0.0027    -0.368    -0.131    -0.123  0.9963  0.0588 -0.0623
              Bcc     0.0062     0.834     0.298     0.278  0.0146  0.6003  0.7996
 
              Baa    -0.0060    -0.810    -0.289    -0.270  0.9997 -0.0248  0.0069
     6 C(13)  Bbb     0.0027     0.361     0.129     0.120  0.0239  0.9944  0.1031
              Bcc     0.0033     0.449     0.160     0.150 -0.0094 -0.1029  0.9946
 
              Baa    -0.3070   -41.200   -14.701   -13.743  0.9822 -0.1874 -0.0093
     7 C(13)  Bbb    -0.3056   -41.011   -14.634   -13.680  0.1875  0.9823  0.0041
              Bcc     0.6126    82.211    29.335    27.423  0.0083 -0.0058  0.9999
 
              Baa    -0.0968   -12.992    -4.636    -4.334  0.0294  0.0052  0.9996
     8 C(13)  Bbb     0.0394     5.287     1.886     1.763  0.5007  0.8654 -0.0192
              Bcc     0.0574     7.705     2.749     2.570  0.8651 -0.5010 -0.0228
 
              Baa    -0.1038   -13.932    -4.971    -4.647 -0.3801  0.9247  0.0218
     9 C(13)  Bbb    -0.1010   -13.557    -4.837    -4.522  0.9240  0.3807 -0.0365
              Bcc     0.2048    27.489     9.809     9.169  0.0421 -0.0062  0.9991
 
              Baa    -0.0229    -3.067    -1.094    -1.023 -0.0177  0.0035  0.9998
    10 C(13)  Bbb     0.0101     1.352     0.482     0.451 -0.4618  0.8869 -0.0113
              Bcc     0.0128     1.715     0.612     0.572  0.8868  0.4619  0.0141
 
              Baa    -0.0024    -0.327    -0.117    -0.109 -0.1391  0.9351 -0.3258
    11 C(13)  Bbb     0.0010     0.137     0.049     0.046 -0.2856  0.2771  0.9174
              Bcc     0.0014     0.190     0.068     0.063  0.9482  0.2207  0.2285
 
              Baa    -0.0043    -0.579    -0.207    -0.193  0.1177  0.5684  0.8143
    12 C(13)  Bbb     0.0005     0.073     0.026     0.024  0.0710  0.8130 -0.5779
              Bcc     0.0038     0.506     0.181     0.169  0.9905 -0.1259 -0.0553
 
              Baa    -0.0007    -0.097    -0.035    -0.032 -0.2756 -0.6577  0.7011
    13 C(13)  Bbb    -0.0004    -0.060    -0.021    -0.020 -0.0175  0.7326  0.6804
              Bcc     0.0012     0.157     0.056     0.052  0.9611 -0.1753  0.2134
 
              Baa    -0.0015    -0.196    -0.070    -0.065 -0.0888  0.2020  0.9754
    14 C(13)  Bbb     0.0001     0.014     0.005     0.005  0.1222  0.9740 -0.1906
              Bcc     0.0014     0.182     0.065     0.061  0.9885 -0.1023  0.1111
 
              Baa    -0.0011    -0.044    -0.016    -0.015 -0.2725  0.1617  0.9485
    15 N(14)  Bbb     0.0002     0.007     0.002     0.002  0.0443  0.9868 -0.1555
              Bcc     0.0010     0.037     0.013     0.012  0.9612  0.0004  0.2760
 
              Baa    -0.0002    -0.026    -0.009    -0.009  0.1389  0.9659  0.2187
    16 C(13)  Bbb    -0.0001    -0.018    -0.007    -0.006 -0.1158 -0.2035  0.9722
              Bcc     0.0003     0.044     0.016     0.015  0.9835 -0.1603  0.0836
 
              Baa    -0.0002    -0.029    -0.010    -0.010 -0.0200  0.9235  0.3831
    17 C(13)  Bbb    -0.0002    -0.023    -0.008    -0.008  0.0750 -0.3807  0.9216
              Bcc     0.0004     0.052     0.019     0.017  0.9970  0.0472 -0.0616
 
              Baa    -0.0019    -0.251    -0.090    -0.084 -0.1324  0.9527 -0.2734
    18 C(13)  Bbb    -0.0005    -0.066    -0.024    -0.022  0.9911  0.1238 -0.0488
              Bcc     0.0024     0.317     0.113     0.106  0.0127  0.2774  0.9607
 
              Baa    -0.0028    -0.371    -0.132    -0.124  0.2136 -0.1766  0.9608
    19 C(13)  Bbb     0.0002     0.026     0.009     0.009  0.0802  0.9834  0.1629
              Bcc     0.0026     0.345     0.123     0.115  0.9736 -0.0422 -0.2242
 
              Baa    -0.0891   -11.961    -4.268    -3.990  0.9991 -0.0284 -0.0322
    20 C(13)  Bbb    -0.0848   -11.384    -4.062    -3.797  0.0286  0.9996  0.0084
              Bcc     0.1740    23.345     8.330     7.787  0.0319 -0.0093  0.9994
 
              Baa    -0.0672    -2.594    -0.925    -0.865  0.9995 -0.0006 -0.0318
    21 N(14)  Bbb    -0.0572    -2.204    -0.787    -0.735  0.0005  1.0000 -0.0048
              Bcc     0.1244     4.798     1.712     1.600  0.0318  0.0048  0.9995
 
              Baa    -0.0027    -0.468    -0.167    -0.156 -0.0159 -0.0067  0.9999
    22 B(11)  Bbb     0.0006     0.103     0.037     0.034  0.9470 -0.3209  0.0129
              Bcc     0.0021     0.364     0.130     0.121  0.3208  0.9471  0.0115
 
              Baa    -0.0129    -6.498    -2.319    -2.168  0.9974  0.0366  0.0614
    23 F(19)  Bbb    -0.0126    -6.311    -2.252    -2.105 -0.0710  0.4062  0.9110
              Bcc     0.0255    12.810     4.571     4.273 -0.0085  0.9130 -0.4078
 
              Baa    -0.0098    -4.936    -1.761    -1.647 -0.1867 -0.2369  0.9534
    24 F(19)  Bbb    -0.0093    -4.647    -1.658    -1.550  0.9824 -0.0388  0.1827
              Bcc     0.0191     9.583     3.420     3.197 -0.0062  0.9708  0.2399
 
              Baa    -0.0546    -2.106    -0.752    -0.703  0.9981 -0.0566  0.0245
    25 N(14)  Bbb    -0.0464    -1.788    -0.638    -0.596  0.0568  0.9984 -0.0068
              Bcc     0.1010     3.894     1.390     1.299 -0.0241  0.0081  0.9997
 
              Baa    -0.0522    -6.998    -2.497    -2.334  0.9990 -0.0416  0.0157
    26 C(13)  Bbb    -0.0486    -6.517    -2.326    -2.174  0.0416  0.9991  0.0045
              Bcc     0.1007    13.516     4.823     4.508 -0.0159 -0.0039  0.9999
 
              Baa    -0.0154    -2.070    -0.739    -0.690 -0.0385  0.0140  0.9992
    27 C(13)  Bbb     0.0063     0.843     0.301     0.281 -0.4002  0.9160 -0.0283
              Bcc     0.0091     1.227     0.438     0.409  0.9156  0.4010  0.0297
 
              Baa    -0.0033    -0.437    -0.156    -0.146 -0.0463  0.9952  0.0863
    28 C(13)  Bbb     0.0005     0.062     0.022     0.021  0.9980  0.0497 -0.0388
              Bcc     0.0028     0.376     0.134     0.125  0.0429 -0.0844  0.9955
 
              Baa    -0.0027    -0.362    -0.129    -0.121  0.0268 -0.2512  0.9676
    29 C(13)  Bbb    -0.0005    -0.071    -0.025    -0.024 -0.2307  0.9402  0.2505
              Bcc     0.0032     0.433     0.155     0.145  0.9726  0.2300  0.0328
 
              Baa    -0.0037    -0.499    -0.178    -0.167 -0.2662  0.9615  0.0682
    30 C(13)  Bbb    -0.0020    -0.262    -0.094    -0.087  0.9639  0.2659  0.0123
              Bcc     0.0057     0.761     0.272     0.254  0.0063 -0.0690  0.9976
 
              Baa    -0.0033    -0.447    -0.159    -0.149 -0.0346  0.9973  0.0645
    31 C(13)  Bbb    -0.0016    -0.215    -0.077    -0.072  0.9993  0.0335  0.0178
              Bcc     0.0049     0.662     0.236     0.221 -0.0156 -0.0651  0.9978
 
              Baa    -0.0028    -0.107    -0.038    -0.036 -0.0330  0.9976  0.0609
    32 N(14)  Bbb    -0.0019    -0.071    -0.025    -0.024  0.9975  0.0290  0.0643
              Bcc     0.0046     0.179     0.064     0.060 -0.0623 -0.0629  0.9961
 
              Baa    -0.0057     0.414     0.148     0.138  0.0456  0.9966  0.0681
    33 O(17)  Bbb    -0.0051     0.369     0.132     0.123  0.9983 -0.0481  0.0344
              Bcc     0.0108    -0.783    -0.279    -0.261 -0.0376 -0.0664  0.9971
 
              Baa    -0.0109     0.791     0.282     0.264 -0.3423  0.9384  0.0467
    34 O(17)  Bbb    -0.0101     0.727     0.260     0.243  0.9389  0.3396  0.0563
              Bcc     0.0210    -1.518    -0.542    -0.507 -0.0370 -0.0631  0.9973
 
              Baa    -0.0032    -0.428    -0.153    -0.143 -0.0308 -0.0700  0.9971
    35 C(13)  Bbb     0.0007     0.096     0.034     0.032 -0.0330  0.9971  0.0689
              Bcc     0.0025     0.332     0.118     0.111  0.9990  0.0308  0.0330
 
              Baa    -0.0031    -0.415    -0.148    -0.139 -0.0050  0.9898  0.1426
    36 C(13)  Bbb     0.0003     0.043     0.015     0.014  0.9929 -0.0120  0.1185
              Bcc     0.0028     0.372     0.133     0.124 -0.1190 -0.1422  0.9827
 
              Baa    -0.1150   -15.428    -5.505    -5.146  0.0619  0.9981 -0.0033
    37 C(13)  Bbb    -0.1117   -14.989    -5.348    -5.000  0.9976 -0.0618  0.0322
              Bcc     0.2267    30.416    10.853    10.146 -0.0320  0.0053  0.9995
 
              Baa    -0.0991   -13.296    -4.744    -4.435 -0.0098  0.0034  0.9999
    38 C(13)  Bbb     0.0396     5.311     1.895     1.772 -0.4238  0.9057 -0.0072
              Bcc     0.0595     7.985     2.849     2.664  0.9057  0.4239  0.0075
 
              Baa    -0.0109    -1.467    -0.523    -0.489  0.0150  0.6451  0.7640
    39 C(13)  Bbb    -0.0095    -1.279    -0.456    -0.427  0.9998 -0.0177 -0.0047
              Bcc     0.0205     2.746     0.980     0.916  0.0105  0.7639 -0.6452
 
              Baa    -0.0036    -0.478    -0.170    -0.159 -0.0780  0.7948  0.6019
    40 C(13)  Bbb    -0.0025    -0.340    -0.121    -0.113  0.9968  0.0527  0.0595
              Bcc     0.0061     0.818     0.292     0.273 -0.0155 -0.6046  0.7964
 
              Baa    -0.0036    -0.483    -0.172    -0.161  0.9999 -0.0043 -0.0127
    41 C(13)  Bbb    -0.0021    -0.285    -0.102    -0.095  0.0133  0.2261  0.9740
              Bcc     0.0057     0.767     0.274     0.256  0.0014  0.9741 -0.2261
 
              Baa    -0.0004    -0.224    -0.080    -0.075  0.1931 -0.1262  0.9730
    42 H(1)   Bbb    -0.0004    -0.209    -0.075    -0.070  0.9796  0.0803 -0.1840
              Bcc     0.0008     0.433     0.154     0.144 -0.0549  0.9888  0.1391
 
              Baa    -0.0004    -0.229    -0.082    -0.076  0.0073 -0.0019  1.0000
    43 H(1)   Bbb    -0.0004    -0.205    -0.073    -0.068  0.9877 -0.1560 -0.0075
              Bcc     0.0008     0.434     0.155     0.145  0.1560  0.9878  0.0007
 
              Baa    -0.0004    -0.225    -0.080    -0.075 -0.1315  0.1085  0.9854
    44 H(1)   Bbb    -0.0004    -0.208    -0.074    -0.069  0.9891  0.0807  0.1231
              Bcc     0.0008     0.433     0.154     0.144 -0.0662  0.9908 -0.1180
 
              Baa    -0.0010    -0.516    -0.184    -0.172  0.9987  0.0154 -0.0481
    45 H(1)   Bbb    -0.0009    -0.486    -0.173    -0.162  0.0499 -0.4497  0.8918
              Bcc     0.0019     1.002     0.358     0.334  0.0078  0.8931  0.4499
 
              Baa    -0.0037    -1.999    -0.713    -0.667 -0.1223  0.9212 -0.3694
    46 H(1)   Bbb    -0.0022    -1.196    -0.427    -0.399  0.9514  0.2148  0.2207
              Bcc     0.0060     3.195     1.140     1.066 -0.2826  0.3245  0.9027
 
              Baa    -0.0037    -1.971    -0.703    -0.657  0.1783  0.9070 -0.3815
    47 H(1)   Bbb    -0.0023    -1.231    -0.439    -0.411  0.9374 -0.2744 -0.2144
              Bcc     0.0060     3.202     1.142     1.068  0.2992  0.3194  0.8992
 
              Baa    -0.0014    -0.759    -0.271    -0.253  0.0340  0.8400 -0.5415
    48 H(1)   Bbb    -0.0013    -0.683    -0.244    -0.228  0.9994 -0.0333  0.0111
              Bcc     0.0027     1.442     0.514     0.481  0.0087  0.5415  0.8406
 
              Baa    -0.0122    -6.534    -2.332    -2.180  0.9220 -0.3845 -0.0465
    49 H(1)   Bbb    -0.0025    -1.347    -0.481    -0.449  0.0406 -0.0236  0.9989
              Bcc     0.0148     7.881     2.812     2.629  0.3851  0.9228  0.0062
 
              Baa    -0.0018    -0.950    -0.339    -0.317 -0.3745 -0.5699  0.7314
    50 H(1)   Bbb    -0.0015    -0.817    -0.291    -0.272  0.2596  0.6929  0.6727
              Bcc     0.0033     1.766     0.630     0.589  0.8901 -0.4418  0.1115
 
              Baa    -0.0004    -0.234    -0.083    -0.078  0.3507  0.8720 -0.3415
    51 H(1)   Bbb    -0.0004    -0.212    -0.076    -0.071  0.0629  0.3420  0.9376
              Bcc     0.0008     0.446     0.159     0.149  0.9344 -0.3503  0.0651
 
              Baa    -0.0002    -0.095    -0.034    -0.032 -0.2251 -0.5120  0.8290
    52 H(1)   Bbb    -0.0002    -0.088    -0.031    -0.029  0.0814  0.8380  0.5396
              Bcc     0.0003     0.183     0.065     0.061  0.9709 -0.1889  0.1470
 
              Baa    -0.0002    -0.096    -0.034    -0.032 -0.0284 -0.1386  0.9899
    53 H(1)   Bbb    -0.0002    -0.092    -0.033    -0.031  0.2769  0.9505  0.1410
              Bcc     0.0004     0.188     0.067     0.063  0.9605 -0.2781 -0.0113
 
              Baa    -0.0001    -0.068    -0.024    -0.023 -0.0121 -0.0261  0.9996
    54 H(1)   Bbb    -0.0001    -0.064    -0.023    -0.021  0.1484  0.9885  0.0276
              Bcc     0.0002     0.132     0.047     0.044  0.9888 -0.1487  0.0081
 
              Baa    -0.0002    -0.107    -0.038    -0.036 -0.0838 -0.0596  0.9947
    55 H(1)   Bbb    -0.0002    -0.105    -0.037    -0.035 -0.1183  0.9918  0.0494
              Bcc     0.0004     0.212     0.076     0.071  0.9894  0.1135  0.0902
 
              Baa    -0.0001    -0.070    -0.025    -0.023  0.0181  0.6310  0.7756
    56 H(1)   Bbb    -0.0001    -0.069    -0.025    -0.023 -0.0332  0.7757 -0.6302
              Bcc     0.0003     0.139     0.050     0.047  0.9993  0.0143 -0.0350
 
              Baa    -0.0002    -0.113    -0.040    -0.038 -0.1933  0.7979 -0.5709
    57 H(1)   Bbb    -0.0002    -0.106    -0.038    -0.035  0.0220  0.5853  0.8105
              Bcc     0.0004     0.219     0.078     0.073  0.9809  0.1441 -0.1307
 
              Baa    -0.0004    -0.218    -0.078    -0.073  0.0691  0.2852  0.9560
    58 H(1)   Bbb    -0.0003    -0.186    -0.067    -0.062 -0.4013  0.8852 -0.2351
              Bcc     0.0008     0.405     0.145     0.135  0.9133  0.3674 -0.1756
 
              Baa    -0.0017    -0.903    -0.322    -0.301 -0.2339  0.8859  0.4005
    59 H(1)   Bbb    -0.0012    -0.651    -0.232    -0.217  0.2555 -0.3414  0.9045
              Bcc     0.0029     1.554     0.554     0.518  0.9381  0.3139 -0.1464
 
              Baa    -0.0128    -6.804    -2.428    -2.270  0.9819  0.1870 -0.0307
    60 H(1)   Bbb    -0.0013    -0.716    -0.256    -0.239  0.0314 -0.0010  0.9995
              Bcc     0.0141     7.521     2.684     2.509 -0.1869  0.9824  0.0068
 
              Baa    -0.0077    -4.084    -1.457    -1.362  0.9830 -0.1823  0.0206
    61 H(1)   Bbb    -0.0013    -0.696    -0.248    -0.232 -0.0195  0.0081  0.9998
              Bcc     0.0090     4.780     1.706     1.594  0.1824  0.9832 -0.0044
 
              Baa    -0.0014    -0.738    -0.263    -0.246 -0.3056  0.4542  0.8368
    62 H(1)   Bbb    -0.0013    -0.707    -0.252    -0.236 -0.3862  0.7442 -0.5450
              Bcc     0.0027     1.445     0.516     0.482  0.8703  0.4898  0.0520
 
              Baa    -0.0005    -0.292    -0.104    -0.097 -0.5952  0.8033  0.0222
    63 H(1)   Bbb    -0.0005    -0.246    -0.088    -0.082 -0.0365 -0.0547  0.9978
              Bcc     0.0010     0.538     0.192     0.179  0.8027  0.5931  0.0618
 
              Baa    -0.0005    -0.282    -0.101    -0.094 -0.0159 -0.0602  0.9981
    64 H(1)   Bbb    -0.0003    -0.177    -0.063    -0.059 -0.0042  0.9982  0.0601
              Bcc     0.0009     0.459     0.164     0.153  0.9999  0.0032  0.0162
 
              Baa    -0.0015    -0.792    -0.283    -0.264  0.2299  0.7634 -0.6036
    65 H(1)   Bbb    -0.0013    -0.708    -0.253    -0.236  0.1770  0.5771  0.7973
              Bcc     0.0028     1.500     0.535     0.500  0.9570 -0.2901 -0.0025
 
              Baa    -0.0134    -7.125    -2.542    -2.377  0.9297  0.3669  0.0328
    66 H(1)   Bbb    -0.0025    -1.316    -0.469    -0.439 -0.0336 -0.0043  0.9994
              Bcc     0.0158     8.441     3.012     2.816 -0.3668  0.9303 -0.0084
 
              Baa    -0.0038    -2.006    -0.716    -0.669 -0.1288  0.9152  0.3820
    67 H(1)   Bbb    -0.0022    -1.152    -0.411    -0.384  0.9509  0.2232 -0.2143
              Bcc     0.0059     3.158     1.127     1.053  0.2814 -0.3356  0.8990
 
              Baa    -0.0014    -0.766    -0.273    -0.255  0.0295  0.8313  0.5550
    68 H(1)   Bbb    -0.0013    -0.668    -0.239    -0.223  0.9996 -0.0239 -0.0173
              Bcc     0.0027     1.434     0.512     0.478  0.0012 -0.5553  0.8317
 
              Baa    -0.0037    -1.985    -0.708    -0.662  0.1800  0.9025  0.3913
    69 H(1)   Bbb    -0.0021    -1.118    -0.399    -0.373  0.9418 -0.2729  0.1961
              Bcc     0.0058     3.104     1.107     1.035 -0.2837 -0.3333  0.8991
 
              Baa    -0.0010    -0.514    -0.183    -0.171  0.9988  0.0173  0.0466
    70 H(1)   Bbb    -0.0009    -0.489    -0.175    -0.163 -0.0495  0.4360  0.8986
              Bcc     0.0019     1.003     0.358     0.335  0.0048  0.8998 -0.4363
 

 ---------------------------------------------------------------------------------

 No NMR shielding tensors so no spin-rotation constants.
 Leave Link  601 at Fri Nov  7 13:43:55 2025, MaxMem= 30870077440 cpu:             176.0 elap:               3.2
 (Enter /public/software/gauss/g16/l9999.exe)
 1\1\GINC-CU015\SP\UM062X\def2TZVPP\C32H29B1F2N4O2(1-,2)\BAIDING\07-Nov
 -2025\0\\#p M062X/DEF2TZVPP scrf=(solvent=water) em=GD3\\Energy calcul
 ation for M100035890_reduced\\-1,2\C,0,0.02416,6.468979,-0.096602\C,0,
 0.063158,4.959945,-0.089069\C,0,0.066027,4.23317,-1.284064\C,0,0.07175
 9,2.833052,-1.29777\C,0,0.075247,2.095692,-2.616561\C,0,0.077047,2.129
 407,-0.073022\C,0,0.08653,0.635074,-0.066566\C,0,-1.132992,-0.093348,-
 0.041531\C,0,-2.46877,0.345228,0.003134\C,0,-3.304438,-0.802627,0.0275
 38\C,0,-4.773022,-0.840725,0.086039\C,0,-5.500626,-2.010071,-0.200849\
 C,0,-6.889751,-2.051169,-0.143234\C,0,-7.645327,-0.910002,0.211785\N,0
 ,-9.04204,-0.956126,0.321077\C,0,-9.729524,-2.058769,-0.349407\C,0,-9.
 759028,0.31713,0.262704\C,0,-6.918754,0.271787,0.481315\C,0,-5.528526,
 0.295598,0.425227\C,0,-2.443724,-1.905743,-0.001569\N,0,-1.142558,-1.4
 87789,-0.043357\B,0,0.091335,-2.398124,-0.147117\F,0,0.096479,-3.10092
 5,-1.368438\F,0,0.112157,-3.339171,0.896935\N,0,1.334055,-1.476159,-0.
 059909\C,0,2.620061,-1.889243,-0.028508\C,0,3.486344,-0.781353,-0.0140
 52\C,0,4.935514,-0.833816,0.021447\C,0,5.635385,-2.063713,0.119247\C,0
 ,7.015546,-2.110267,0.155202\C,0,7.746519,-0.912411,0.095107\N,0,9.175
 265,-0.951327,0.13445\O,0,9.749864,-2.056452,0.217818\O,0,9.813936,0.1
 20066,0.084234\C,0,7.088949,0.323029,-0.002479\C,0,5.707568,0.354091,-
 0.038452\C,0,2.645738,0.371135,-0.038855\C,0,1.316896,-0.072715,-0.063
 129\C,0,0.078464,2.847005,1.144147\C,0,0.089852,2.125032,2.471406\C,0,
 0.072617,4.246567,1.114387\H,0,0.473928,6.876065,-1.007062\H,0,-1.0083
 76,6.838139,-0.051551\H,0,0.55321,6.887167,0.765204\H,0,0.064894,4.767
 646,-2.231535\H,0,0.960841,1.458424,-2.717175\H,0,-0.79856,1.441628,-2
 .711543\H,0,0.066065,2.79674,-3.455402\H,0,-2.782767,1.379662,0.005269
 \H,0,-4.972181,-2.912537,-0.49555\H,0,-7.385223,-2.982968,-0.386266\H,
 0,-9.552698,-2.07914,-1.435917\H,0,-9.422257,-3.022377,0.064061\H,0,-1
 0.802366,-1.959449,-0.178083\H,0,-9.586439,0.864704,-0.676714\H,0,-10.
 828495,0.122634,0.35553\H,0,-9.473764,0.967293,1.09321\H,0,-7.437084,1
 .185191,0.745657\H,0,-5.020335,1.227181,0.657797\H,0,-2.679862,-2.9604
 93,0.022667\H,0,2.856045,-2.944121,-0.02807\H,0,5.084145,-2.99589,0.17
 3398\H,0,7.535733,-3.056502,0.2321\H,0,7.665358,1.238242,-0.050302\H,0
 ,5.209705,1.313821,-0.118274\H,0,2.954014,1.40641,-0.023721\H,0,0.9730
 1,1.484416,2.571683\H,0,0.091771,2.836003,3.301899\H,0,-0.786574,1.477
 018,2.582011\H,0,0.077014,4.791774,2.055772\\Version=ES64L-G16RevA.03\
 State=2-A\HF=-1831.1008097\S2=0.770554\S2-1=0.\S2A=0.750327\RMSD=7.015
 e-09\Dipole=-5.2545192,3.5559239,-0.0697202\Quadrupole=-52.7720111,27.
 7380541,25.033957,9.0542129,2.202379,1.2131046\PG=C01 [X(C32H29B1F2N4O
 2)]\\@


 A warm smile is the universal language of kindness.
                             -- William Arthur Ward
 Job cpu time:       1 days  2 hours 44 minutes 55.6 seconds.
 Elapsed time:       0 days  0 hours 25 minutes 24.5 seconds.
 File lengths (MBytes):  RWF=   3020 Int=      0 D2E=      0 Chk=    197 Scr=      1
 Normal termination of Gaussian 16 at Fri Nov  7 13:43:56 2025.
