 Entering Gaussian System, Link 0=g16
 Input=M100036085_sp.gjf
 Output=M100036085_sp.log
 Initial command:
 /public/software/gauss/g16/l1.exe "/public/home/baiding/1101_v2_sp/tmp_M100036085_sp_1568608/Gau-43475.inp" -scrdir="/public/home/baiding/1101_v2_sp/tmp_M100036085_sp_1568608/"
 Entering Link 1 = /public/software/gauss/g16/l1.exe PID=     43476.
  
 Copyright (c) 1988,1990,1992,1993,1995,1998,2003,2009,2016,
            Gaussian, Inc.  All Rights Reserved.
  
 This is part of the Gaussian(R) 16 program.  It is based on
 the Gaussian(R) 09 system (copyright 2009, Gaussian, Inc.),
 the Gaussian(R) 03 system (copyright 2003, Gaussian, Inc.),
 the Gaussian(R) 98 system (copyright 1998, Gaussian, Inc.),
 the Gaussian(R) 94 system (copyright 1995, Gaussian, Inc.),
 the Gaussian 92(TM) system (copyright 1992, Gaussian, Inc.),
 the Gaussian 90(TM) system (copyright 1990, Gaussian, Inc.),
 the Gaussian 88(TM) system (copyright 1988, Gaussian, Inc.),
 the Gaussian 86(TM) system (copyright 1986, Carnegie Mellon
 University), and the Gaussian 82(TM) system (copyright 1983,
 Carnegie Mellon University). Gaussian is a federally registered
 trademark of Gaussian, Inc.
  
 This software contains proprietary and confidential information,
 including trade secrets, belonging to Gaussian, Inc.
  
 This software is provided under written license and may be
 used, copied, transmitted, or stored only in accord with that
 written license.
  
 The following legend is applicable only to US Government
 contracts under FAR:
  
                    RESTRICTED RIGHTS LEGEND
  
 Use, reproduction and disclosure by the US Government is
 subject to restrictions as set forth in subparagraphs (a)
 and (c) of the Commercial Computer Software - Restricted
 Rights clause in FAR 52.227-19.
  
 Gaussian, Inc.
 340 Quinnipiac St., Bldg. 40, Wallingford CT 06492
  
  
 ---------------------------------------------------------------
 Warning -- This program may not be used in any manner that
 competes with the business of Gaussian, Inc. or will provide
 assistance to any competitor of Gaussian, Inc.  The licensee
 of this program is prohibited from giving any competitor of
 Gaussian, Inc. access to this program.  By using this program,
 the user acknowledges that Gaussian, Inc. is engaged in the
 business of creating and licensing software in the field of
 computational chemistry and represents and warrants to the
 licensee that it is not a competitor of Gaussian, Inc. and that
 it will not use this program in any manner prohibited above.
 ---------------------------------------------------------------
  

 Cite this work as:
 Gaussian 16, Revision A.03,
 M. J. Frisch, G. W. Trucks, H. B. Schlegel, G. E. Scuseria, 
 M. A. Robb, J. R. Cheeseman, G. Scalmani, V. Barone, 
 G. A. Petersson, H. Nakatsuji, X. Li, M. Caricato, A. V. Marenich, 
 J. Bloino, B. G. Janesko, R. Gomperts, B. Mennucci, H. P. Hratchian, 
 J. V. Ortiz, A. F. Izmaylov, J. L. Sonnenberg, D. Williams-Young, 
 F. Ding, F. Lipparini, F. Egidi, J. Goings, B. Peng, A. Petrone, 
 T. Henderson, D. Ranasinghe, V. G. Zakrzewski, J. Gao, N. Rega, 
 G. Zheng, W. Liang, M. Hada, M. Ehara, K. Toyota, R. Fukuda, 
 J. Hasegawa, M. Ishida, T. Nakajima, Y. Honda, O. Kitao, H. Nakai, 
 T. Vreven, K. Throssell, J. A. Montgomery, Jr., J. E. Peralta, 
 F. Ogliaro, M. J. Bearpark, J. J. Heyd, E. N. Brothers, K. N. Kudin, 
 V. N. Staroverov, T. A. Keith, R. Kobayashi, J. Normand, 
 K. Raghavachari, A. P. Rendell, J. C. Burant, S. S. Iyengar, 
 J. Tomasi, M. Cossi, J. M. Millam, M. Klene, C. Adamo, R. Cammi, 
 J. W. Ochterski, R. L. Martin, K. Morokuma, O. Farkas, 
 J. B. Foresman, and D. J. Fox, Gaussian, Inc., Wallingford CT, 2016.
 
 ******************************************
 Gaussian 16:  ES64L-G16RevA.03 25-Dec-2016
                 7-Nov-2025 
 ******************************************
 %nprocshared=64
 Will use up to   64 processors via shared memory.
 %mem=230GB
 %chk=M100036085_sp.chk
 ----------------------------------------------
 #p M062X/DEF2TZVPP scrf=(solvent=water) em=GD3
 ----------------------------------------------
 1/38=1,172=1/1;
 2/12=2,17=6,18=5,40=1/2;
 3/5=44,7=202,11=2,25=1,30=1,70=2201,72=1,74=-55,124=31/1,2,3;
 4//1;
 5/5=2,38=5,53=1/2;
 6/7=2,8=2,9=2,10=2,28=1/1;
 99/5=1,9=1/99;
 Leave Link    1 at Fri Nov  7 16:37:59 2025, MaxMem= 30870077440 cpu:              12.3 elap:               0.2
 (Enter /public/software/gauss/g16/l101.exe)
 ---------------------------------
 Energy calculation for M100036085
 ---------------------------------
 Symbolic Z-matrix:
 Charge =  0 Multiplicity = 1
 C                     5.68763  -3.08609   0.57116 
 C                     4.29239  -2.55249   0.45097 
 C                     3.14853  -3.32119   0.57719 
 C                     2.01595  -2.48268   0.41932 
 C                     0.61876  -2.83229   0.47456 
 C                     0.17164  -4.11052   0.55043 
 C                    -1.21991  -4.54279   0.6211 
 C                    -2.31632  -3.65214   0.62142 
 C                    -3.61863  -4.12706   0.69359 
 C                    -3.89038  -5.50499   0.76851 
 C                    -5.31163  -6.01583   0.86825 
 N                    -6.10581  -5.75478  -0.35406 
 C                    -5.60982  -6.49248  -1.52466 
 C                    -5.72803  -8.02279  -1.36712 
 O                    -6.8092   -8.38155  -0.49195 
 C                    -7.9149   -7.48947  -0.64703 
 C                    -7.54178  -6.07181  -0.16554 
 C                    -2.80607  -6.3906    0.76971 
 C                    -1.49602  -5.92114   0.69782 
 N                     2.45078  -1.20704   0.20577 
 C                     3.84766  -1.20576   0.21104 
 C                     4.55816  -0.00755   0.02785 
 C                     6.05264  -0.03223   0.02545 
 C                     6.76412   0.15811   1.21951 
 C                     8.15459   0.13688   1.22358 
 C                     8.82089  -0.07613   0.01691 
 N                     10.28116  -0.09865   0.01232 
 O                     10.86397  -0.28011  -1.06169 
 O                     10.87601   0.06474   1.08262 
 C                     8.14077  -0.26872  -1.18551 
 C                     6.75029  -0.24575  -1.17282 
 C                     3.88672   1.21496  -0.14107 
 C                     4.37521   2.5585   -0.30056 
 C                     5.78724   3.05795  -0.35105 
 C                     3.2571    3.36851  -0.39389 
 C                     2.09742   2.5577   -0.30018 
 C                     0.71236   2.95416  -0.33844 
 C                     0.30444   4.22199  -0.59517 
 C                    -1.0733    4.70018  -0.63892 
 C                    -1.30507   6.07146  -0.87669 
 C                    -2.59494   6.58778  -0.92422 
 C                    -3.71041   5.75684  -0.74078 
 C                    -5.11918   6.30893  -0.8101 
 N                    -5.42912   7.24863   0.29037 
 C                    -5.58798   6.56965   1.59924 
 C                    -7.06031   6.25545   1.93534 
 O                    -7.80449   5.99215   0.74341 
 C                    -7.91454   7.17126  -0.07006 
 C                    -6.63851   8.03455   0.0108 
 C                    -3.48412   4.39085  -0.51177 
 C                    -2.19607   3.86733  -0.45998 
 N                     2.4904    1.26024  -0.14359 
 B                     1.57476   0.00955  -0.1898 
 F                     1.05391  -0.1644   -1.47968 
 F                     0.51208   0.15456   0.71835 
 H                     6.23567  -2.62      1.39572 
 H                     5.65232  -4.16299   0.75446 
 H                     6.27163  -2.91591  -0.33838 
 H                     3.11949  -4.38223   0.78286 
 H                    -0.0846   -2.00795   0.46117 
 H                     0.89989  -4.91923   0.55795 
 H                    -2.14665  -2.58134   0.57057 
 H                    -4.44267  -3.41935   0.69944 
 H                    -5.28937  -7.07989   1.14326 
 H                    -5.81604  -5.49079   1.6867 
 H                    -6.19173  -6.15986  -2.39075 
 H                    -4.56808  -6.22564  -1.72187 
 H                    -5.8669   -8.49221  -2.35328 
 H                    -4.8281   -8.44895  -0.91439 
 H                    -8.23604  -7.47475  -1.69883 
 H                    -8.73758  -7.89936  -0.05482 
 H                    -8.1545   -5.34536  -0.71624 
 H                    -7.78209  -5.95717   0.89437 
 H                    -2.99048  -7.4598    0.83207 
 H                    -0.66921  -6.62635   0.70075 
 H                     6.22721   0.32335   2.14715 
 H                     8.71329   0.2828    2.13901 
 H                     8.68882  -0.43252  -2.10437 
 H                     6.2026   -0.39401  -2.09702 
 H                     6.3251    2.86358   0.582 
 H                     6.36061   2.58767  -1.15548 
 H                     5.7865    4.13756  -0.52133 
 H                     3.26392   4.44398  -0.50399 
 H                    -0.01616   2.17844  -0.13373 
 H                     1.05631   4.9843   -0.78966 
 H                    -0.45428   6.73074  -1.02685 
 H                    -2.73942   7.64784  -1.11213 
 H                    -5.22958   6.87347  -1.74311 
 H                    -5.82456   5.4676   -0.85837 
 H                    -4.99902   5.64991   1.58519 
 H                    -5.17569   7.20054   2.39791 
 H                    -7.13549   5.36076   2.55933 
 H                    -7.52365   7.08658   2.4869 
 H                    -8.08846   6.81277  -1.08868 
 H                    -8.79074   7.76314   0.23713 
 H                    -6.51201   8.58726  -0.92508 
 H                    -6.74046   8.77712   0.80964 
 H                    -4.33486   3.72834  -0.37593 
 H                    -2.06439   2.80474  -0.28239 
 
 ITRead=  0  0  0  0  0  0  0  0  0  0  0  0  0  0  0  0  0  0  0  0
 ITRead=  0  0  0  0  0  0  0  0  0  0  0  0  0  0  0  0  0  0  0  0
 ITRead=  0  0  0  0  0  0  0  0  0  0  0  0  0  0  0  0  0  0  0  0
 ITRead=  0  0  0  0  0  0  0  0  0  0  0  0  0  0  0  0  0  0  0  0
 ITRead=  0  0  0  0  0  0  0  0  0  0  0  0  0  0  0  0  0  0  0
 MicOpt= -1 -1 -1 -1 -1 -1 -1 -1 -1 -1 -1 -1 -1 -1 -1 -1 -1 -1 -1 -1
 MicOpt= -1 -1 -1 -1 -1 -1 -1 -1 -1 -1 -1 -1 -1 -1 -1 -1 -1 -1 -1 -1
 MicOpt= -1 -1 -1 -1 -1 -1 -1 -1 -1 -1 -1 -1 -1 -1 -1 -1 -1 -1 -1 -1
 MicOpt= -1 -1 -1 -1 -1 -1 -1 -1 -1 -1 -1 -1 -1 -1 -1 -1 -1 -1 -1 -1
 MicOpt= -1 -1 -1 -1 -1 -1 -1 -1 -1 -1 -1 -1 -1 -1 -1 -1 -1 -1 -1
 NAtoms=     99 NQM=       99 NQMF=       0 NMMI=      0 NMMIF=      0
                NMic=       0 NMicF=      0.
                    Isotopes and Nuclear Properties:
 (Nuclear quadrupole moments (NQMom) in fm**2, nuclear magnetic moments (NMagM)
  in nuclear magnetons)

  Atom         1           2           3           4           5           6           7           8           9          10
 IAtWgt=          12          12          12          12          12          12          12          12          12          12
 AtmWgt=  12.0000000  12.0000000  12.0000000  12.0000000  12.0000000  12.0000000  12.0000000  12.0000000  12.0000000  12.0000000
 NucSpn=           0           0           0           0           0           0           0           0           0           0
 AtZEff=  -0.0000000  -0.0000000  -0.0000000  -0.0000000  -0.0000000  -0.0000000  -0.0000000  -0.0000000  -0.0000000  -0.0000000
 NQMom=    0.0000000   0.0000000   0.0000000   0.0000000   0.0000000   0.0000000   0.0000000   0.0000000   0.0000000   0.0000000
 NMagM=    0.0000000   0.0000000   0.0000000   0.0000000   0.0000000   0.0000000   0.0000000   0.0000000   0.0000000   0.0000000
 AtZNuc=   6.0000000   6.0000000   6.0000000   6.0000000   6.0000000   6.0000000   6.0000000   6.0000000   6.0000000   6.0000000

  Atom        11          12          13          14          15          16          17          18          19          20
 IAtWgt=          12          14          12          12          16          12          12          12          12          14
 AtmWgt=  12.0000000  14.0030740  12.0000000  12.0000000  15.9949146  12.0000000  12.0000000  12.0000000  12.0000000  14.0030740
 NucSpn=           0           2           0           0           0           0           0           0           0           2
 AtZEff=  -0.0000000  -0.0000000  -0.0000000  -0.0000000  -0.0000000  -0.0000000  -0.0000000  -0.0000000  -0.0000000  -0.0000000
 NQMom=    0.0000000   2.0440000   0.0000000   0.0000000   0.0000000   0.0000000   0.0000000   0.0000000   0.0000000   2.0440000
 NMagM=    0.0000000   0.4037610   0.0000000   0.0000000   0.0000000   0.0000000   0.0000000   0.0000000   0.0000000   0.4037610
 AtZNuc=   6.0000000   7.0000000   6.0000000   6.0000000   8.0000000   6.0000000   6.0000000   6.0000000   6.0000000   7.0000000

  Atom        21          22          23          24          25          26          27          28          29          30
 IAtWgt=          12          12          12          12          12          12          14          16          16          12
 AtmWgt=  12.0000000  12.0000000  12.0000000  12.0000000  12.0000000  12.0000000  14.0030740  15.9949146  15.9949146  12.0000000
 NucSpn=           0           0           0           0           0           0           2           0           0           0
 AtZEff=  -0.0000000  -0.0000000  -0.0000000  -0.0000000  -0.0000000  -0.0000000  -0.0000000  -0.0000000  -0.0000000  -0.0000000
 NQMom=    0.0000000   0.0000000   0.0000000   0.0000000   0.0000000   0.0000000   2.0440000   0.0000000   0.0000000   0.0000000
 NMagM=    0.0000000   0.0000000   0.0000000   0.0000000   0.0000000   0.0000000   0.4037610   0.0000000   0.0000000   0.0000000
 AtZNuc=   6.0000000   6.0000000   6.0000000   6.0000000   6.0000000   6.0000000   7.0000000   8.0000000   8.0000000   6.0000000

  Atom        31          32          33          34          35          36          37          38          39          40
 IAtWgt=          12          12          12          12          12          12          12          12          12          12
 AtmWgt=  12.0000000  12.0000000  12.0000000  12.0000000  12.0000000  12.0000000  12.0000000  12.0000000  12.0000000  12.0000000
 NucSpn=           0           0           0           0           0           0           0           0           0           0
 AtZEff=  -0.0000000  -0.0000000  -0.0000000  -0.0000000  -0.0000000  -0.0000000  -0.0000000  -0.0000000  -0.0000000  -0.0000000
 NQMom=    0.0000000   0.0000000   0.0000000   0.0000000   0.0000000   0.0000000   0.0000000   0.0000000   0.0000000   0.0000000
 NMagM=    0.0000000   0.0000000   0.0000000   0.0000000   0.0000000   0.0000000   0.0000000   0.0000000   0.0000000   0.0000000
 AtZNuc=   6.0000000   6.0000000   6.0000000   6.0000000   6.0000000   6.0000000   6.0000000   6.0000000   6.0000000   6.0000000

  Atom        41          42          43          44          45          46          47          48          49          50
 IAtWgt=          12          12          12          14          12          12          16          12          12          12
 AtmWgt=  12.0000000  12.0000000  12.0000000  14.0030740  12.0000000  12.0000000  15.9949146  12.0000000  12.0000000  12.0000000
 NucSpn=           0           0           0           2           0           0           0           0           0           0
 AtZEff=  -0.0000000  -0.0000000  -0.0000000  -0.0000000  -0.0000000  -0.0000000  -0.0000000  -0.0000000  -0.0000000  -0.0000000
 NQMom=    0.0000000   0.0000000   0.0000000   2.0440000   0.0000000   0.0000000   0.0000000   0.0000000   0.0000000   0.0000000
 NMagM=    0.0000000   0.0000000   0.0000000   0.4037610   0.0000000   0.0000000   0.0000000   0.0000000   0.0000000   0.0000000
 AtZNuc=   6.0000000   6.0000000   6.0000000   7.0000000   6.0000000   6.0000000   8.0000000   6.0000000   6.0000000   6.0000000

  Atom        51          52          53          54          55          56          57          58          59          60
 IAtWgt=          12          14          11          19          19           1           1           1           1           1
 AtmWgt=  12.0000000  14.0030740  11.0093053  18.9984033  18.9984033   1.0078250   1.0078250   1.0078250   1.0078250   1.0078250
 NucSpn=           0           2           3           1           1           1           1           1           1           1
 AtZEff=  -0.0000000  -0.0000000  -0.0000000  -0.0000000  -0.0000000  -0.0000000  -0.0000000  -0.0000000  -0.0000000  -0.0000000
 NQMom=    0.0000000   2.0440000   4.0590000   0.0000000   0.0000000   0.0000000   0.0000000   0.0000000   0.0000000   0.0000000
 NMagM=    0.0000000   0.4037610   2.6886370   2.6288670   2.6288670   2.7928460   2.7928460   2.7928460   2.7928460   2.7928460
 AtZNuc=   6.0000000   7.0000000   5.0000000   9.0000000   9.0000000   1.0000000   1.0000000   1.0000000   1.0000000   1.0000000

  Atom        61          62          63          64          65          66          67          68          69          70
 IAtWgt=           1           1           1           1           1           1           1           1           1           1
 AtmWgt=   1.0078250   1.0078250   1.0078250   1.0078250   1.0078250   1.0078250   1.0078250   1.0078250   1.0078250   1.0078250
 NucSpn=           1           1           1           1           1           1           1           1           1           1
 AtZEff=  -0.0000000  -0.0000000  -0.0000000  -0.0000000  -0.0000000  -0.0000000  -0.0000000  -0.0000000  -0.0000000  -0.0000000
 NQMom=    0.0000000   0.0000000   0.0000000   0.0000000   0.0000000   0.0000000   0.0000000   0.0000000   0.0000000   0.0000000
 NMagM=    2.7928460   2.7928460   2.7928460   2.7928460   2.7928460   2.7928460   2.7928460   2.7928460   2.7928460   2.7928460
 AtZNuc=   1.0000000   1.0000000   1.0000000   1.0000000   1.0000000   1.0000000   1.0000000   1.0000000   1.0000000   1.0000000

  Atom        71          72          73          74          75          76          77          78          79          80
 IAtWgt=           1           1           1           1           1           1           1           1           1           1
 AtmWgt=   1.0078250   1.0078250   1.0078250   1.0078250   1.0078250   1.0078250   1.0078250   1.0078250   1.0078250   1.0078250
 NucSpn=           1           1           1           1           1           1           1           1           1           1
 AtZEff=  -0.0000000  -0.0000000  -0.0000000  -0.0000000  -0.0000000  -0.0000000  -0.0000000  -0.0000000  -0.0000000  -0.0000000
 NQMom=    0.0000000   0.0000000   0.0000000   0.0000000   0.0000000   0.0000000   0.0000000   0.0000000   0.0000000   0.0000000
 NMagM=    2.7928460   2.7928460   2.7928460   2.7928460   2.7928460   2.7928460   2.7928460   2.7928460   2.7928460   2.7928460
 AtZNuc=   1.0000000   1.0000000   1.0000000   1.0000000   1.0000000   1.0000000   1.0000000   1.0000000   1.0000000   1.0000000

  Atom        81          82          83          84          85          86          87          88          89          90
 IAtWgt=           1           1           1           1           1           1           1           1           1           1
 AtmWgt=   1.0078250   1.0078250   1.0078250   1.0078250   1.0078250   1.0078250   1.0078250   1.0078250   1.0078250   1.0078250
 NucSpn=           1           1           1           1           1           1           1           1           1           1
 AtZEff=  -0.0000000  -0.0000000  -0.0000000  -0.0000000  -0.0000000  -0.0000000  -0.0000000  -0.0000000  -0.0000000  -0.0000000
 NQMom=    0.0000000   0.0000000   0.0000000   0.0000000   0.0000000   0.0000000   0.0000000   0.0000000   0.0000000   0.0000000
 NMagM=    2.7928460   2.7928460   2.7928460   2.7928460   2.7928460   2.7928460   2.7928460   2.7928460   2.7928460   2.7928460
 AtZNuc=   1.0000000   1.0000000   1.0000000   1.0000000   1.0000000   1.0000000   1.0000000   1.0000000   1.0000000   1.0000000

  Atom        91          92          93          94          95          96          97          98          99
 IAtWgt=           1           1           1           1           1           1           1           1           1
 AtmWgt=   1.0078250   1.0078250   1.0078250   1.0078250   1.0078250   1.0078250   1.0078250   1.0078250   1.0078250
 NucSpn=           1           1           1           1           1           1           1           1           1
 AtZEff=  -0.0000000  -0.0000000  -0.0000000  -0.0000000  -0.0000000  -0.0000000  -0.0000000  -0.0000000  -0.0000000
 NQMom=    0.0000000   0.0000000   0.0000000   0.0000000   0.0000000   0.0000000   0.0000000   0.0000000   0.0000000
 NMagM=    2.7928460   2.7928460   2.7928460   2.7928460   2.7928460   2.7928460   2.7928460   2.7928460   2.7928460
 AtZNuc=   1.0000000   1.0000000   1.0000000   1.0000000   1.0000000   1.0000000   1.0000000   1.0000000   1.0000000
 Leave Link  101 at Fri Nov  7 16:37:59 2025, MaxMem= 30870077440 cpu:               4.3 elap:               0.1
 (Enter /public/software/gauss/g16/l202.exe)
 Stoichiometry    C43H44BF2N5O4
 Framework group  C1[X(C43H44BF2N5O4)]
 Deg. of freedom   291
 Full point group                 C1      NOp   1
 Largest Abelian subgroup         C1      NOp   1
 Largest concise Abelian subgroup C1      NOp   1
                         Standard orientation:                         
 ---------------------------------------------------------------------
 Center     Atomic      Atomic             Coordinates (Angstroms)
 Number     Number       Type             X           Y           Z
 ---------------------------------------------------------------------
      1          6           0       -5.687630    3.086086    0.571160
      2          6           0       -4.292391    2.552485    0.450968
      3          6           0       -3.148528    3.321192    0.577193
      4          6           0       -2.015950    2.482680    0.419315
      5          6           0       -0.618755    2.832290    0.474562
      6          6           0       -0.171642    4.110525    0.550429
      7          6           0        1.219911    4.542786    0.621099
      8          6           0        2.316318    3.652136    0.621418
      9          6           0        3.618627    4.127058    0.693592
     10          6           0        3.890381    5.504992    0.768508
     11          6           0        5.311632    6.015833    0.868245
     12          7           0        6.105810    5.754778   -0.354056
     13          6           0        5.609823    6.492479   -1.524656
     14          6           0        5.728029    8.022789   -1.367120
     15          8           0        6.809195    8.381554   -0.491954
     16          6           0        7.914900    7.489467   -0.647029
     17          6           0        7.541785    6.071814   -0.165537
     18          6           0        2.806068    6.390596    0.769707
     19          6           0        1.496016    5.921135    0.697820
     20          7           0       -2.450778    1.207043    0.205767
     21          6           0       -3.847657    1.205757    0.211042
     22          6           0       -4.558156    0.007550    0.027851
     23          6           0       -6.052638    0.032230    0.025446
     24          6           0       -6.764125   -0.158109    1.219508
     25          6           0       -8.154588   -0.136875    1.223581
     26          6           0       -8.820894    0.076131    0.016914
     27          7           0      -10.281162    0.098654    0.012317
     28          8           0      -10.863968    0.280107   -1.061687
     29          8           0      -10.876014   -0.064741    1.082616
     30          6           0       -8.140765    0.268719   -1.185507
     31          6           0       -6.750286    0.245748   -1.172815
     32          6           0       -3.886716   -1.214955   -0.141068
     33          6           0       -4.375206   -2.558496   -0.300557
     34          6           0       -5.787238   -3.057947   -0.351051
     35          6           0       -3.257099   -3.368510   -0.393894
     36          6           0       -2.097419   -2.557700   -0.300175
     37          6           0       -0.712363   -2.954164   -0.338439
     38          6           0       -0.304441   -4.221989   -0.595174
     39          6           0        1.073296   -4.700176   -0.638921
     40          6           0        1.305070   -6.071464   -0.876686
     41          6           0        2.594941   -6.587783   -0.924215
     42          6           0        3.710414   -5.756843   -0.740775
     43          6           0        5.119178   -6.308928   -0.810104
     44          7           0        5.429115   -7.248632    0.290368
     45          6           0        5.587978   -6.569648    1.599243
     46          6           0        7.060311   -6.255448    1.935344
     47          8           0        7.804490   -5.992152    0.743409
     48          6           0        7.914535   -7.171260   -0.070056
     49          6           0        6.638513   -8.034555    0.010803
     50          6           0        3.484119   -4.390847   -0.511770
     51          6           0        2.196073   -3.867327   -0.459977
     52          7           0       -2.490404   -1.260240   -0.143590
     53          5           0       -1.574757   -0.009551   -0.189803
     54          9           0       -1.053912    0.164396   -1.479676
     55          9           0       -0.512082   -0.154564    0.718354
     56          1           0       -6.235674    2.619996    1.395718
     57          1           0       -5.652317    4.162992    0.754461
     58          1           0       -6.271635    2.915910   -0.338383
     59          1           0       -3.119491    4.382230    0.782858
     60          1           0        0.084595    2.007952    0.461165
     61          1           0       -0.899885    4.919234    0.557952
     62          1           0        2.146654    2.581337    0.570565
     63          1           0        4.442672    3.419348    0.699435
     64          1           0        5.289374    7.079895    1.143257
     65          1           0        5.816036    5.490793    1.686700
     66          1           0        6.191729    6.159861   -2.390746
     67          1           0        4.568084    6.225637   -1.721866
     68          1           0        5.866901    8.492210   -2.353281
     69          1           0        4.828096    8.448952   -0.914388
     70          1           0        8.236038    7.474750   -1.698831
     71          1           0        8.737580    7.899357   -0.054824
     72          1           0        8.154495    5.345358   -0.716240
     73          1           0        7.782091    5.957170    0.894369
     74          1           0        2.990484    7.459795    0.832073
     75          1           0        0.669208    6.626354    0.700747
     76          1           0       -6.227206   -0.323351    2.147152
     77          1           0       -8.713287   -0.282804    2.139013
     78          1           0       -8.688820    0.432520   -2.104374
     79          1           0       -6.202600    0.394005   -2.097023
     80          1           0       -6.325102   -2.863578    0.581995
     81          1           0       -6.360606   -2.587673   -1.155482
     82          1           0       -5.786498   -4.137556   -0.521334
     83          1           0       -3.263918   -4.443979   -0.503993
     84          1           0        0.016155   -2.178443   -0.133734
     85          1           0       -1.056311   -4.984295   -0.789664
     86          1           0        0.454282   -6.730738   -1.026853
     87          1           0        2.739417   -7.647839   -1.112131
     88          1           0        5.229581   -6.873465   -1.743109
     89          1           0        5.824560   -5.467596   -0.858365
     90          1           0        4.999019   -5.649905    1.585189
     91          1           0        5.175688   -7.200541    2.397914
     92          1           0        7.135494   -5.360756    2.559333
     93          1           0        7.523649   -7.086577    2.486899
     94          1           0        8.088457   -6.812768   -1.088683
     95          1           0        8.790736   -7.763139    0.237129
     96          1           0        6.512013   -8.587255   -0.925080
     97          1           0        6.740456   -8.777121    0.809640
     98          1           0        4.334857   -3.728338   -0.375929
     99          1           0        2.064391   -2.804743   -0.282389
 ---------------------------------------------------------------------
 Rotational constants (GHZ):           0.0317607           0.0224674           0.0135147
 Leave Link  202 at Fri Nov  7 16:37:59 2025, MaxMem= 30870077440 cpu:               0.5 elap:               0.0
 (Enter /public/software/gauss/g16/l301.exe)
 Standard basis: def2TZVPP (5D, 7F)
 Ernie: Thresh=  0.10000D-02 Tol=  0.10000D-05 Strict=F.
 There are  2640 symmetry adapted cartesian basis functions of A   symmetry.
 There are  2321 symmetry adapted basis functions of A   symmetry.
  2321 basis functions,  3553 primitive gaussians,  2640 cartesian basis functions
   196 alpha electrons      196 beta electrons
       nuclear repulsion energy      6635.7986234675 Hartrees.
 IExCor= 4336 DFT=T Ex+Corr=M062X ExCW=0 ScaHFX=  0.540000
 ScaDFX=  1.000000  1.000000  1.000000  1.000000 ScalE2=  1.000000  1.000000
 IRadAn=      5 IRanWt=     -1 IRanGd=            0 ICorTp=0 IEmpDi=131
 NAtoms=   99 NActive=   99 NUniq=   99 SFac= 1.00D+00 NAtFMM=   60 NAOKFM=T Big=T
 Integral buffers will be    131072 words long.
 Raffenetti 2 integral format.
 Two-electron integral symmetry is turned on.
 R6Disp:  Grimme-D3 Dispersion energy=       -0.0077390420 Hartrees.
 Nuclear repulsion after empirical dispersion term =     6635.7908844254 Hartrees.
 ------------------------------------------------------------------------------
 Polarizable Continuum Model (PCM)
 =================================
 Model                : PCM.
 Atomic radii         : UFF (Universal Force Field).
 Polarization charges : Total charges.
 Charge compensation  : None.
 Solution method      : On-the-fly selection.
 Cavity type          : Scaled VdW (van der Waals Surface) (Alpha=1.100).
 Cavity algorithm     : GePol (No added spheres)
                        Default sphere list used, NSphG=   99.
                        Lebedev-Laikov grids with approx.  5.0 points / Ang**2.
                        Smoothing algorithm: York/Karplus (Gamma=1.0000).
                        Polarization charges: spherical gaussians, with
                                              point-specific exponents (IZeta= 3).
                        Self-potential: point-specific (ISelfS= 7).
                        Self-field    : sphere-specific E.n sum rule (ISelfD= 2).
 Solvent              : Water, Eps=  78.355300 Eps(inf)=   1.777849
 ------------------------------------------------------------------------------
 GePol: Number of generator spheres                  =      99
 GePol: Total number of spheres                      =      99
 GePol: Number of exposed spheres                    =      99 (100.00%)
 GePol: Number of points                             =    6791
 GePol: Average weight of points                     =       0.13
 GePol: Minimum weight of points                     =   0.16D-11
 GePol: Maximum weight of points                     =    0.20577
 GePol: Number of points with low weight             =     457
 GePol: Fraction of low-weight points (<1% of avg)   =       6.73%
 GePol: Cavity surface area                          =    856.175 Ang**2
 GePol: Cavity volume                                =    999.059 Ang**3
 Leave Link  301 at Fri Nov  7 16:37:59 2025, MaxMem= 30870077440 cpu:               5.6 elap:               0.1
 (Enter /public/software/gauss/g16/l302.exe)
 NPDir=0 NMtPBC=     1 NCelOv=     1 NCel=       1 NClECP=     1 NCelD=      1
         NCelK=      1 NCelE2=     1 NClLst=     1 CellRange=     0.0.
 One-electron integrals computed using PRISM.
 One-electron integral symmetry used in STVInt
   1 Symmetry operations used in ECPInt.
 ECPInt:  NShTT=  378015 NPrTT= 1056220 LenC2=  191400 LenP2D=  359805.
 LDataN:  DoStor=T MaxTD1= 6 Len=  172
 NBasis=  2321 RedAO= T EigKep=  3.60D-06  NBF=  2321
 NBsUse=  2321 1.00D-06 EigRej= -1.00D+00 NBFU=  2321
 Precomputing XC quadrature grid using
 IXCGrd= 4 IRadAn=           5 IRanWt=          -1 IRanGd=           0 AccXCQ= 0.00D+00.
 Generated NRdTot=       0 NPtTot=           0 NUsed=           0 NTot=          32
 NSgBfM=  2160  2160  2160  2160  2160 MxSgAt=    99 MxSgA2=    99.
 Leave Link  302 at Fri Nov  7 16:38:16 2025, MaxMem= 30870077440 cpu:            1035.9 elap:              16.3
 (Enter /public/software/gauss/g16/l303.exe)
 DipDrv:  MaxL=1.
 Leave Link  303 at Fri Nov  7 16:38:16 2025, MaxMem= 30870077440 cpu:              39.2 elap:               0.7
 (Enter /public/software/gauss/g16/l401.exe)
 ExpMin= 6.06D-02 ExpMax= 3.55D+04 ExpMxC= 1.21D+03 IAcc=3 IRadAn=         5 AccDes= 0.00D+00
 Harris functional with IExCor= 1009 and IRadAn=       5 diagonalized for initial guess.
 HarFok:  IExCor= 1009 AccDes= 0.00D+00 IRadAn=         5 IDoV= 1 UseB2=F ITyADJ=14
 ICtDFT=  3500011 ScaDFX=  1.000000  1.000000  1.000000  1.000000
 FoFCou: FMM=F IPFlag=           0 FMFlag=      100000 FMFlg1=        2001
         NFxFlg=           0 DoJE=T BraDBF=F KetDBF=T FulRan=T
         wScrn=  0.000000 ICntrl=       500 IOpCl=  0 I1Cent=   200000004 NGrid=           0
         NMat0=    1 NMatS0=      1 NMatT0=    0 NMatD0=    1 NMtDS0=    0 NMtDT0=    0
 Petite list used in FoFCou.
 Harris En= -2463.00917728078    
 JPrj=0 DoOrth=F DoCkMO=F.
 Leave Link  401 at Fri Nov  7 16:38:31 2025, MaxMem= 30870077440 cpu:             946.6 elap:              14.9
 (Enter /public/software/gauss/g16/l502.exe)
 Integral symmetry usage will be decided dynamically.
 Closed shell SCF:
 Using DIIS extrapolation, IDIIS=  1040.
 NGot= 30870077440 LenX= 30855947009 LenY= 30848974769
 Requested convergence on RMS density matrix=1.00D-08 within 128 cycles.
 Requested convergence on MAX density matrix=1.00D-06.
 Requested convergence on             energy=1.00D-06.
 No special actions if energy rises.
 Fock matrices will be formed incrementally for  20 cycles.

 Cycle   1  Pass 1  IDiag  1:
 FoFJK:  IHMeth= 1 ICntrl=       0 DoSepK=F KAlg= 0 I1Cent=           0 FoldK=F
 IRaf= 460000000 NMat=       1 IRICut=       1 DoRegI=T DoRafI=F ISym2E= 0 IDoP0=0 IntGTp=1.
 FoFCou: FMM=T IPFlag=           0 FMFlag=      100000 FMFlg1=        2001
         NFxFlg=           0 DoJE=F BraDBF=F KetDBF=F FulRan=T
         wScrn=  0.000000 ICntrl=         0 IOpCl=  0 I1Cent=           0 NGrid=           0
         NMat0=    1 NMatS0=      1 NMatT0=    0 NMatD0=    1 NMtDS0=    0 NMtDT0=    0
 Symmetry not used in FoFCou.
 FMM levels:  10  Number of levels for PrismC:   9
 Inv3:  Mode=1 IEnd=   138353043.
 Iteration    1 A*A^-1 deviation from unit magnitude is 3.51D-14 for   6790.
 Iteration    1 A*A^-1 deviation from orthogonality  is 7.49D-15 for   6790   2867.
 Iteration    1 A^-1*A deviation from unit magnitude is 3.51D-14 for   6790.
 Iteration    1 A^-1*A deviation from orthogonality  is 8.84D-15 for   6783   2913.
 E= -2463.05374069916    
 DIIS: error= 2.54D-02 at cycle   1 NSaved=   1.
 NSaved= 1 IEnMin= 1 EnMin= -2463.05374069916     IErMin= 1 ErrMin= 2.54D-02
 ErrMax= 2.54D-02  0.00D+00 EMaxC= 1.00D-01 BMatC= 1.60D+00 BMatP= 1.60D+00
 IDIUse=3 WtCom= 7.46D-01 WtEn= 2.54D-01
 Coeff-Com:  0.100D+01
 Coeff-En:   0.100D+01
 Coeff:      0.100D+01
 Gap=     0.133 Goal=   None    Shift=    0.000
 GapD=    0.133 DampG=1.000 DampE=0.500 DampFc=0.5000 IDamp=-1.
 Damping current iteration by 5.00D-01
 RMSDP=1.22D-03 MaxDP=3.15D-01              OVMax= 2.62D-01

 Cycle   2  Pass 1  IDiag  1:
 RMSU=  6.10D-04    CP:  9.92D-01
 E= -2463.66186488350     Delta-E=       -0.608124184340 Rises=F Damp=T
 DIIS: error= 5.17D-03 at cycle   2 NSaved=   2.
 NSaved= 2 IEnMin= 2 EnMin= -2463.66186488350     IErMin= 2 ErrMin= 5.17D-03
 ErrMax= 5.17D-03  0.00D+00 EMaxC= 1.00D-01 BMatC= 1.66D-01 BMatP= 1.60D+00
 IDIUse=3 WtCom= 9.48D-01 WtEn= 5.17D-02
 Coeff-Com: -0.108D+00 0.111D+01
 Coeff-En:   0.000D+00 0.100D+01
 Coeff:     -0.103D+00 0.110D+01
 Gap=     0.180 Goal=   None    Shift=    0.000
 RMSDP=5.26D-04 MaxDP=5.73D-02 DE=-6.08D-01 OVMax= 1.72D-01

 Cycle   3  Pass 1  IDiag  1:
 RMSU=  4.91D-04    CP:  9.73D-01  1.29D+00
 E= -2464.20862609370     Delta-E=       -0.546761210198 Rises=F Damp=F
 DIIS: error= 1.18D-02 at cycle   3 NSaved=   3.
 NSaved= 3 IEnMin= 3 EnMin= -2464.20862609370     IErMin= 2 ErrMin= 5.17D-03
 ErrMax= 1.18D-02  0.00D+00 EMaxC= 1.00D-01 BMatC= 8.99D-02 BMatP= 1.66D-01
 IDIUse=3 WtCom= 8.82D-01 WtEn= 1.18D-01
 Coeff-Com: -0.133D+00 0.507D+00 0.626D+00
 Coeff-En:   0.000D+00 0.000D+00 0.100D+01
 Coeff:     -0.117D+00 0.447D+00 0.670D+00
 Gap=     0.135 Goal=   None    Shift=    0.000
 RMSDP=1.41D-04 MaxDP=3.27D-02 DE=-5.47D-01 OVMax= 9.45D-02

 Cycle   4  Pass 1  IDiag  1:
 RMSU=  1.33D-04    CP:  9.75D-01  1.33D+00  9.12D-01
 E= -2464.26311617866     Delta-E=       -0.054490084965 Rises=F Damp=F
 DIIS: error= 4.85D-03 at cycle   4 NSaved=   4.
 NSaved= 4 IEnMin= 4 EnMin= -2464.26311617866     IErMin= 4 ErrMin= 4.85D-03
 ErrMax= 4.85D-03  0.00D+00 EMaxC= 1.00D-01 BMatC= 1.74D-02 BMatP= 8.99D-02
 IDIUse=3 WtCom= 9.51D-01 WtEn= 4.85D-02
 Coeff-Com: -0.387D-01 0.103D+00 0.348D+00 0.588D+00
 Coeff-En:   0.000D+00 0.000D+00 0.148D+00 0.852D+00
 Coeff:     -0.369D-01 0.977D-01 0.339D+00 0.601D+00
 Gap=     0.136 Goal=   None    Shift=    0.000
 RMSDP=4.96D-05 MaxDP=9.98D-03 DE=-5.45D-02 OVMax= 2.79D-02

 Cycle   5  Pass 1  IDiag  1:
 RMSU=  3.76D-05    CP:  9.74D-01  1.34D+00  9.19D-01  7.65D-01
 E= -2464.27575489936     Delta-E=       -0.012638720698 Rises=F Damp=F
 DIIS: error= 6.20D-04 at cycle   5 NSaved=   5.
 NSaved= 5 IEnMin= 5 EnMin= -2464.27575489936     IErMin= 5 ErrMin= 6.20D-04
 ErrMax= 6.20D-04  0.00D+00 EMaxC= 1.00D-01 BMatC= 4.60D-04 BMatP= 1.74D-02
 IDIUse=3 WtCom= 9.94D-01 WtEn= 6.20D-03
 Coeff-Com: -0.829D-02 0.151D-01 0.107D+00 0.250D+00 0.636D+00
 Coeff-En:   0.000D+00 0.000D+00 0.000D+00 0.000D+00 0.100D+01
 Coeff:     -0.824D-02 0.150D-01 0.106D+00 0.248D+00 0.639D+00
 Gap=     0.137 Goal=   None    Shift=    0.000
 RMSDP=1.34D-05 MaxDP=1.80D-03 DE=-1.26D-02 OVMax= 4.54D-03

 Cycle   6  Pass 1  IDiag  1:
 RMSU=  1.21D-05    CP:  9.74D-01  1.34D+00  9.24D-01  7.78D-01  8.88D-01
 E= -2464.27613512868     Delta-E=       -0.000380229318 Rises=F Damp=F
 DIIS: error= 8.54D-05 at cycle   6 NSaved=   6.
 NSaved= 6 IEnMin= 6 EnMin= -2464.27613512868     IErMin= 6 ErrMin= 8.54D-05
 ErrMax= 8.54D-05  0.00D+00 EMaxC= 1.00D-01 BMatC= 3.15D-05 BMatP= 4.60D-04
 IDIUse=1 WtCom= 1.00D+00 WtEn= 0.00D+00
 Coeff-Com: -0.424D-03-0.107D-02 0.160D-01 0.495D-01 0.250D+00 0.686D+00
 Coeff:     -0.424D-03-0.107D-02 0.160D-01 0.495D-01 0.250D+00 0.686D+00
 Gap=     0.137 Goal=   None    Shift=    0.000
 RMSDP=5.28D-06 MaxDP=1.14D-03 DE=-3.80D-04 OVMax= 2.16D-03

 Cycle   7  Pass 1  IDiag  1:
 RMSU=  4.69D-06    CP:  9.74D-01  1.34D+00  9.24D-01  7.75D-01  9.36D-01
                    CP:  9.38D-01
 E= -2464.27616684182     Delta-E=       -0.000031713142 Rises=F Damp=F
 DIIS: error= 3.70D-05 at cycle   7 NSaved=   7.
 NSaved= 7 IEnMin= 7 EnMin= -2464.27616684182     IErMin= 7 ErrMin= 3.70D-05
 ErrMax= 3.70D-05  0.00D+00 EMaxC= 1.00D-01 BMatC= 4.75D-06 BMatP= 3.15D-05
 IDIUse=1 WtCom= 1.00D+00 WtEn= 0.00D+00
 Coeff-Com:  0.107D-02-0.277D-02-0.871D-02-0.151D-01 0.232D-01 0.295D+00
 Coeff-Com:  0.707D+00
 Coeff:      0.107D-02-0.277D-02-0.871D-02-0.151D-01 0.232D-01 0.295D+00
 Coeff:      0.707D+00
 Gap=     0.138 Goal=   None    Shift=    0.000
 RMSDP=2.25D-06 MaxDP=2.65D-04 DE=-3.17D-05 OVMax= 1.09D-03

 Cycle   8  Pass 1  IDiag  1:
 RMSU=  1.58D-06    CP:  9.74D-01  1.34D+00  9.23D-01  7.81D-01  9.63D-01
                    CP:  1.02D+00  1.01D+00
 E= -2464.27617273909     Delta-E=       -0.000005897267 Rises=F Damp=F
 DIIS: error= 1.61D-05 at cycle   8 NSaved=   8.
 NSaved= 8 IEnMin= 8 EnMin= -2464.27617273909     IErMin= 8 ErrMin= 1.61D-05
 ErrMax= 1.61D-05  0.00D+00 EMaxC= 1.00D-01 BMatC= 9.45D-07 BMatP= 4.75D-06
 IDIUse=1 WtCom= 1.00D+00 WtEn= 0.00D+00
 Coeff-Com:  0.574D-03-0.121D-02-0.659D-02-0.148D-01-0.230D-01 0.449D-01
 Coeff-Com:  0.350D+00 0.651D+00
 Coeff:      0.574D-03-0.121D-02-0.659D-02-0.148D-01-0.230D-01 0.449D-01
 Coeff:      0.350D+00 0.651D+00
 Gap=     0.138 Goal=   None    Shift=    0.000
 RMSDP=9.05D-07 MaxDP=1.16D-04 DE=-5.90D-06 OVMax= 5.81D-04

 Cycle   9  Pass 1  IDiag  1:
 RMSU=  6.56D-07    CP:  9.74D-01  1.34D+00  9.23D-01  7.80D-01  9.68D-01
                    CP:  1.03D+00  1.12D+00  9.59D-01
 E= -2464.27617402417     Delta-E=       -0.000001285085 Rises=F Damp=F
 DIIS: error= 6.68D-06 at cycle   9 NSaved=   9.
 NSaved= 9 IEnMin= 9 EnMin= -2464.27617402417     IErMin= 9 ErrMin= 6.68D-06
 ErrMax= 6.68D-06  0.00D+00 EMaxC= 1.00D-01 BMatC= 9.10D-08 BMatP= 9.45D-07
 IDIUse=1 WtCom= 1.00D+00 WtEn= 0.00D+00
 Coeff-Com:  0.492D-04-0.457D-04-0.120D-02-0.350D-02-0.110D-01-0.254D-01
 Coeff-Com:  0.309D-01 0.241D+00 0.769D+00
 Coeff:      0.492D-04-0.457D-04-0.120D-02-0.350D-02-0.110D-01-0.254D-01
 Coeff:      0.309D-01 0.241D+00 0.769D+00
 Gap=     0.138 Goal=   None    Shift=    0.000
 RMSDP=3.91D-07 MaxDP=5.91D-05 DE=-1.29D-06 OVMax= 2.76D-04

 Cycle  10  Pass 1  IDiag  1:
 RMSU=  2.62D-07    CP:  9.74D-01  1.34D+00  9.23D-01  7.81D-01  9.71D-01
                    CP:  1.04D+00  1.15D+00  1.08D+00  1.00D+00
 E= -2464.27617418959     Delta-E=       -0.000000165415 Rises=F Damp=F
 DIIS: error= 2.51D-06 at cycle  10 NSaved=  10.
 NSaved=10 IEnMin=10 EnMin= -2464.27617418959     IErMin=10 ErrMin= 2.51D-06
 ErrMax= 2.51D-06  0.00D+00 EMaxC= 1.00D-01 BMatC= 2.70D-08 BMatP= 9.10D-08
 IDIUse=1 WtCom= 1.00D+00 WtEn= 0.00D+00
 Coeff-Com: -0.762D-04 0.192D-03 0.543D-03 0.813D-03-0.104D-02-0.197D-01
 Coeff-Com: -0.441D-01 0.200D-02 0.401D+00 0.661D+00
 Coeff:     -0.762D-04 0.192D-03 0.543D-03 0.813D-03-0.104D-02-0.197D-01
 Coeff:     -0.441D-01 0.200D-02 0.401D+00 0.661D+00
 Gap=     0.138 Goal=   None    Shift=    0.000
 RMSDP=1.47D-07 MaxDP=2.51D-05 DE=-1.65D-07 OVMax= 1.22D-04

 Cycle  11  Pass 1  IDiag  1:
 RMSU=  8.66D-08    CP:  9.74D-01  1.34D+00  9.23D-01  7.81D-01  9.71D-01
                    CP:  1.04D+00  1.17D+00  1.11D+00  1.10D+00  1.05D+00
 E= -2464.27617422791     Delta-E=       -0.000000038326 Rises=F Damp=F
 DIIS: error= 6.16D-07 at cycle  11 NSaved=  11.
 NSaved=11 IEnMin=11 EnMin= -2464.27617422791     IErMin=11 ErrMin= 6.16D-07
 ErrMax= 6.16D-07  0.00D+00 EMaxC= 1.00D-01 BMatC= 2.22D-09 BMatP= 2.70D-08
 IDIUse=1 WtCom= 1.00D+00 WtEn= 0.00D+00
 Coeff-Com: -0.393D-04 0.877D-04 0.404D-03 0.855D-03 0.113D-02-0.523D-02
 Coeff-Com: -0.241D-01-0.390D-01 0.606D-01 0.252D+00 0.753D+00
 Coeff:     -0.393D-04 0.877D-04 0.404D-03 0.855D-03 0.113D-02-0.523D-02
 Coeff:     -0.241D-01-0.390D-01 0.606D-01 0.252D+00 0.753D+00
 Gap=     0.138 Goal=   None    Shift=    0.000
 RMSDP=5.39D-08 MaxDP=8.63D-06 DE=-3.83D-08 OVMax= 3.93D-05

 Cycle  12  Pass 1  IDiag  1:
 RMSU=  3.27D-08    CP:  9.74D-01  1.34D+00  9.23D-01  7.81D-01  9.71D-01
                    CP:  1.04D+00  1.17D+00  1.12D+00  1.15D+00  1.12D+00
                    CP:  1.06D+00
 E= -2464.27617423154     Delta-E=       -0.000000003629 Rises=F Damp=F
 DIIS: error= 3.91D-07 at cycle  12 NSaved=  12.
 NSaved=12 IEnMin=12 EnMin= -2464.27617423154     IErMin=12 ErrMin= 3.91D-07
 ErrMax= 3.91D-07  0.00D+00 EMaxC= 1.00D-01 BMatC= 3.50D-10 BMatP= 2.22D-09
 IDIUse=1 WtCom= 1.00D+00 WtEn= 0.00D+00
 Coeff-Com: -0.614D-05 0.115D-04 0.952D-04 0.242D-03 0.582D-03 0.242D-03
 Coeff-Com: -0.393D-02-0.163D-01-0.196D-01 0.204D-01 0.324D+00 0.694D+00
 Coeff:     -0.614D-05 0.115D-04 0.952D-04 0.242D-03 0.582D-03 0.242D-03
 Coeff:     -0.393D-02-0.163D-01-0.196D-01 0.204D-01 0.324D+00 0.694D+00
 Gap=     0.138 Goal=   None    Shift=    0.000
 RMSDP=1.59D-08 MaxDP=3.06D-06 DE=-3.63D-09 OVMax= 1.07D-05

 Cycle  13  Pass 1  IDiag  1:
 RMSU=  1.17D-08    CP:  9.74D-01  1.34D+00  9.23D-01  7.81D-01  9.71D-01
                    CP:  1.04D+00  1.17D+00  1.12D+00  1.16D+00  1.13D+00
                    CP:  1.16D+00  1.09D+00
 E= -2464.27617423145     Delta-E=        0.000000000089 Rises=F Damp=F
 DIIS: error= 9.47D-08 at cycle  13 NSaved=  13.
 NSaved=13 IEnMin=12 EnMin= -2464.27617423154     IErMin=13 ErrMin= 9.47D-08
 ErrMax= 9.47D-08  0.00D+00 EMaxC= 1.00D-01 BMatC= 4.75D-11 BMatP= 3.50D-10
 IDIUse=1 WtCom= 1.00D+00 WtEn= 0.00D+00
 Coeff-Com:  0.195D-05-0.513D-05-0.690D-05 0.412D-05 0.120D-03 0.716D-03
 Coeff-Com:  0.133D-02-0.249D-02-0.147D-01-0.245D-01 0.400D-01 0.302D+00
 Coeff-Com:  0.698D+00
 Coeff:      0.195D-05-0.513D-05-0.690D-05 0.412D-05 0.120D-03 0.716D-03
 Coeff:      0.133D-02-0.249D-02-0.147D-01-0.245D-01 0.400D-01 0.302D+00
 Coeff:      0.698D+00
 Gap=     0.138 Goal=   None    Shift=    0.000
 RMSDP=6.93D-09 MaxDP=1.25D-06 DE= 8.91D-11 OVMax= 3.76D-06

 Cycle  14  Pass 1  IDiag  1:
 RMSU=  4.76D-09    CP:  9.74D-01  1.34D+00  9.23D-01  7.81D-01  9.71D-01
                    CP:  1.04D+00  1.17D+00  1.11D+00  1.16D+00  1.14D+00
                    CP:  1.19D+00  1.15D+00  1.13D+00
 E= -2464.27617423178     Delta-E=       -0.000000000329 Rises=F Damp=F
 DIIS: error= 3.27D-08 at cycle  14 NSaved=  14.
 NSaved=14 IEnMin=14 EnMin= -2464.27617423178     IErMin=14 ErrMin= 3.27D-08
 ErrMax= 3.27D-08  0.00D+00 EMaxC= 1.00D-01 BMatC= 6.34D-12 BMatP= 4.75D-11
 IDIUse=1 WtCom= 1.00D+00 WtEn= 0.00D+00
 Coeff-Com:  0.145D-05-0.336D-05-0.139D-04-0.248D-04-0.148D-04 0.277D-03
 Coeff-Com:  0.111D-02 0.736D-03-0.405D-02-0.147D-01-0.238D-01 0.471D-01
 Coeff-Com:  0.311D+00 0.682D+00
 Coeff:      0.145D-05-0.336D-05-0.139D-04-0.248D-04-0.148D-04 0.277D-03
 Coeff:      0.111D-02 0.736D-03-0.405D-02-0.147D-01-0.238D-01 0.471D-01
 Coeff:      0.311D+00 0.682D+00
 Gap=     0.138 Goal=   None    Shift=    0.000
 RMSDP=2.33D-09 MaxDP=4.37D-07 DE=-3.29D-10 OVMax= 9.84D-07

 Error on total polarization charges =  0.02718
 SCF Done:  E(RM062X) =  -2464.27617423     A.U. after   14 cycles
            NFock= 14  Conv=0.23D-08     -V/T= 2.0055
 KE= 2.450866225594D+03 PE=-1.901483956585D+04 EE= 7.463906281602D+03
 Leave Link  502 at Fri Nov  7 16:58:57 2025, MaxMem= 30870077440 cpu:           76958.6 elap:            1225.2
 (Enter /public/software/gauss/g16/l601.exe)
 Copying SCF densities to generalized density rwf, IOpCl= 0 IROHF=0.

 **********************************************************************

            Population analysis using the SCF density.

 **********************************************************************

 Orbital symmetries:
       Occupied  (A) (A) (A) (A) (A) (A) (A) (A) (A) (A) (A) (A)
                 (A) (A) (A) (A) (A) (A) (A) (A) (A) (A) (A) (A)
                 (A) (A) (A) (A) (A) (A) (A) (A) (A) (A) (A) (A)
                 (A) (A) (A) (A) (A) (A) (A) (A) (A) (A) (A) (A)
                 (A) (A) (A) (A) (A) (A) (A) (A) (A) (A) (A) (A)
                 (A) (A) (A) (A) (A) (A) (A) (A) (A) (A) (A) (A)
                 (A) (A) (A) (A) (A) (A) (A) (A) (A) (A) (A) (A)
                 (A) (A) (A) (A) (A) (A) (A) (A) (A) (A) (A) (A)
                 (A) (A) (A) (A) (A) (A) (A) (A) (A) (A) (A) (A)
                 (A) (A) (A) (A) (A) (A) (A) (A) (A) (A) (A) (A)
                 (A) (A) (A) (A) (A) (A) (A) (A) (A) (A) (A) (A)
                 (A) (A) (A) (A) (A) (A) (A) (A) (A) (A) (A) (A)
                 (A) (A) (A) (A) (A) (A) (A) (A) (A) (A) (A) (A)
                 (A) (A) (A) (A) (A) (A) (A) (A) (A) (A) (A) (A)
                 (A) (A) (A) (A) (A) (A) (A) (A) (A) (A) (A) (A)
                 (A) (A) (A) (A) (A) (A) (A) (A) (A) (A) (A) (A)
                 (A) (A) (A) (A)
       Virtual   (A) (A) (A) (A) (A) (A) (A) (A) (A) (A) (A) (A)
                 (A) (A) (A) (A) (A) (A) (A) (A) (A) (A) (A) (A)
                 (A) (A) (A) (A) (A) (A) (A) (A) (A) (A) (A) (A)
                 (A) (A) (A) (A) (A) (A) (A) (A) (A) (A) (A) (A)
                 (A) (A) (A) (A) (A) (A) (A) (A) (A) (A) (A) (A)
                 (A) (A) (A) (A) (A) (A) (A) (A) (A) (A) (A) (A)
                 (A) (A) (A) (A) (A) (A) (A) (A) (A) (A) (A) (A)
                 (A) (A) (A) (A) (A) (A) (A) (A) (A) (A) (A) (A)
                 (A) (A) (A) (A) (A) (A) (A) (A) (A) (A) (A) (A)
                 (A) (A) (A) (A) (A) (A) (A) (A) (A) (A) (A) (A)
                 (A) (A) (A) (A) (A) (A) (A) (A) (A) (A) (A) (A)
                 (A) (A) (A) (A) (A) (A) (A) (A) (A) (A) (A) (A)
                 (A) (A) (A) (A) (A) (A) (A) (A) (A) (A) (A) (A)
                 (A) (A) (A) (A) (A) (A) (A) (A) (A) (A) (A) (A)
                 (A) (A) (A) (A) (A) (A) (A) (A) (A) (A) (A) (A)
                 (A) (A) (A) (A) (A) (A) (A) (A) (A) (A) (A) (A)
                 (A) (A) (A) (A) (A) (A) (A) (A) (A) (A) (A) (A)
                 (A) (A) (A) (A) (A) (A) (A) (A) (A) (A) (A) (A)
                 (A) (A) (A) (A) (A) (A) (A) (A) (A) (A) (A) (A)
                 (A) (A) (A) (A) (A) (A) (A) (A) (A) (A) (A) (A)
                 (A) (A) (A) (A) (A) (A) (A) (A) (A) (A) (A) (A)
                 (A) (A) (A) (A) (A) (A) (A) (A) (A) (A) (A) (A)
                 (A) (A) (A) (A) (A) (A) (A) (A) (A) (A) (A) (A)
                 (A) (A) (A) (A) (A) (A) (A) (A) (A) (A) (A) (A)
                 (A) (A) (A) (A) (A) (A) (A) (A) (A) (A) (A) (A)
                 (A) (A) (A) (A) (A) (A) (A) (A) (A) (A) (A) (A)
                 (A) (A) (A) (A) (A) (A) (A) (A) (A) (A) (A) (A)
                 (A) (A) (A) (A) (A) (A) (A) (A) (A) (A) (A) (A)
                 (A) (A) (A) (A) (A) (A) (A) (A) (A) (A) (A) (A)
                 (A) (A) (A) (A) (A) (A) (A) (A) (A) (A) (A) (A)
                 (A) (A) (A) (A) (A) (A) (A) (A) (A) (A) (A) (A)
                 (A) (A) (A) (A) (A) (A) (A) (A) (A) (A) (A) (A)
                 (A) (A) (A) (A) (A) (A) (A) (A) (A) (A) (A) (A)
                 (A) (A) (A) (A) (A) (A) (A) (A) (A) (A) (A) (A)
                 (A) (A) (A) (A) (A) (A) (A) (A) (A) (A) (A) (A)
                 (A) (A) (A) (A) (A) (A) (A) (A) (A) (A) (A) (A)
                 (A) (A) (A) (A) (A) (A) (A) (A) (A) (A) (A) (A)
                 (A) (A) (A) (A) (A) (A) (A) (A) (A) (A) (A) (A)
                 (A) (A) (A) (A) (A) (A) (A) (A) (A) (A) (A) (A)
                 (A) (A) (A) (A) (A) (A) (A) (A) (A) (A) (A) (A)
                 (A) (A) (A) (A) (A) (A) (A) (A) (A) (A) (A) (A)
                 (A) (A) (A) (A) (A) (A) (A) (A) (A) (A) (A) (A)
                 (A) (A) (A) (A) (A) (A) (A) (A) (A) (A) (A) (A)
                 (A) (A) (A) (A) (A) (A) (A) (A) (A) (A) (A) (A)
                 (A) (A) (A) (A) (A) (A) (A) (A) (A) (A) (A) (A)
                 (A) (A) (A) (A) (A) (A) (A) (A) (A) (A) (A) (A)
                 (A) (A) (A) (A) (A) (A) (A) (A) (A) (A) (A) (A)
                 (A) (A) (A) (A) (A) (A) (A) (A) (A) (A) (A) (A)
                 (A) (A) (A) (A) (A) (A) (A) (A) (A) (A) (A) (A)
                 (A) (A) (A) (A) (A) (A) (A) (A) (A) (A) (A) (A)
                 (A) (A) (A) (A) (A) (A) (A) (A) (A) (A) (A) (A)
                 (A) (A) (A) (A) (A) (A) (A) (A) (A) (A) (A) (A)
                 (A) (A) (A) (A) (A) (A) (A) (A) (A) (A) (A) (A)
                 (A) (A) (A) (A) (A) (A) (A) (A) (A) (A) (A) (A)
                 (A) (A) (A) (A) (A) (A) (A) (A) (A) (A) (A) (A)
                 (A) (A) (A) (A) (A) (A) (A) (A) (A) (A) (A) (A)
                 (A) (A) (A) (A) (A) (A) (A) (A) (A) (A) (A) (A)
                 (A) (A) (A) (A) (A) (A) (A) (A) (A) (A) (A) (A)
                 (A) (A) (A) (A) (A) (A) (A) (A) (A) (A) (A) (A)
                 (A) (A) (A) (A) (A) (A) (A) (A) (A) (A) (A) (A)
                 (A) (A) (A) (A) (A) (A) (A) (A) (A) (A) (A) (A)
                 (A) (A) (A) (A) (A) (A) (A) (A) (A) (A) (A) (A)
                 (A) (A) (A) (A) (A) (A) (A) (A) (A) (A) (A) (A)
                 (A) (A) (A) (A) (A) (A) (A) (A) (A) (A) (A) (A)
                 (A) (A) (A) (A) (A) (A) (A) (A) (A) (A) (A) (A)
                 (A) (A) (A) (A) (A) (A) (A) (A) (A) (A) (A) (A)
                 (A) (A) (A) (A) (A) (A) (A) (A) (A) (A) (A) (A)
                 (A) (A) (A) (A) (A) (A) (A) (A) (A) (A) (A) (A)
                 (A) (A) (A) (A) (A) (A) (A) (A) (A) (A) (A) (A)
                 (A) (A) (A) (A) (A) (A) (A) (A) (A) (A) (A) (A)
                 (A) (A) (A) (A) (A) (A) (A) (A) (A) (A) (A) (A)
                 (A) (A) (A) (A) (A) (A) (A) (A) (A) (A) (A) (A)
                 (A) (A) (A) (A) (A) (A) (A) (A) (A) (A) (A) (A)
                 (A) (A) (A) (A) (A) (A) (A) (A) (A) (A) (A) (A)
                 (A) (A) (A) (A) (A) (A) (A) (A) (A) (A) (A) (A)
                 (A) (A) (A) (A) (A) (A) (A) (A) (A) (A) (A) (A)
                 (A) (A) (A) (A) (A) (A) (A) (A) (A) (A) (A) (A)
                 (A) (A) (A) (A) (A) (A) (A) (A) (A) (A) (A) (A)
                 (A) (A) (A) (A) (A) (A) (A) (A) (A) (A) (A) (A)
                 (A) (A) (A) (A) (A) (A) (A) (A) (A) (A) (A) (A)
                 (A) (A) (A) (A) (A) (A) (A) (A) (A) (A) (A) (A)
                 (A) (A) (A) (A) (A) (A) (A) (A) (A) (A) (A) (A)
                 (A) (A) (A) (A) (A) (A) (A) (A) (A) (A) (A) (A)
                 (A) (A) (A) (A) (A) (A) (A) (A) (A) (A) (A) (A)
                 (A) (A) (A) (A) (A) (A) (A) (A) (A) (A) (A) (A)
                 (A) (A) (A) (A) (A) (A) (A) (A) (A) (A) (A) (A)
                 (A) (A) (A) (A) (A) (A) (A) (A) (A) (A) (A) (A)
                 (A) (A) (A) (A) (A) (A) (A) (A) (A) (A) (A) (A)
                 (A) (A) (A) (A) (A) (A) (A) (A) (A) (A) (A) (A)
                 (A) (A) (A) (A) (A) (A) (A) (A) (A) (A) (A) (A)
                 (A) (A) (A) (A) (A) (A) (A) (A) (A) (A) (A) (A)
                 (A) (A) (A) (A) (A) (A) (A) (A) (A) (A) (A) (A)
                 (A) (A) (A) (A) (A) (A) (A) (A) (A) (A) (A) (A)
                 (A) (A) (A) (A) (A) (A) (A) (A) (A) (A) (A) (A)
                 (A) (A) (A) (A) (A) (A) (A) (A) (A) (A) (A) (A)
                 (A) (A) (A) (A) (A) (A) (A) (A) (A) (A) (A) (A)
                 (A) (A) (A) (A) (A) (A) (A) (A) (A) (A) (A) (A)
                 (A) (A) (A) (A) (A) (A) (A) (A) (A) (A) (A) (A)
                 (A) (A) (A) (A) (A) (A) (A) (A) (A) (A) (A) (A)
                 (A) (A) (A) (A) (A) (A) (A) (A) (A) (A) (A) (A)
                 (A) (A) (A) (A) (A) (A) (A) (A) (A) (A) (A) (A)
                 (A) (A) (A) (A) (A) (A) (A) (A) (A) (A) (A) (A)
                 (A) (A) (A) (A) (A) (A) (A) (A) (A) (A) (A) (A)
                 (A) (A) (A) (A) (A) (A) (A) (A) (A) (A) (A) (A)
                 (A) (A) (A) (A) (A) (A) (A) (A) (A) (A) (A) (A)
                 (A) (A) (A) (A) (A) (A) (A) (A) (A) (A) (A) (A)
                 (A) (A) (A) (A) (A) (A) (A) (A) (A) (A) (A) (A)
                 (A) (A) (A) (A) (A) (A) (A) (A) (A) (A) (A) (A)
                 (A) (A) (A) (A) (A) (A) (A) (A) (A) (A) (A) (A)
                 (A) (A) (A) (A) (A) (A) (A) (A) (A) (A) (A) (A)
                 (A) (A) (A) (A) (A) (A) (A) (A) (A) (A) (A) (A)
                 (A) (A) (A) (A) (A) (A) (A) (A) (A) (A) (A) (A)
                 (A) (A) (A) (A) (A) (A) (A) (A) (A) (A) (A) (A)
                 (A) (A) (A) (A) (A) (A) (A) (A) (A) (A) (A) (A)
                 (A) (A) (A) (A) (A) (A) (A) (A) (A) (A) (A) (A)
                 (A) (A) (A) (A) (A) (A) (A) (A) (A) (A) (A) (A)
                 (A) (A) (A) (A) (A) (A) (A) (A) (A) (A) (A) (A)
                 (A) (A) (A) (A) (A) (A) (A) (A) (A) (A) (A) (A)
                 (A) (A) (A) (A) (A) (A) (A) (A) (A) (A) (A) (A)
                 (A) (A) (A) (A) (A) (A) (A) (A) (A) (A) (A) (A)
                 (A) (A) (A) (A) (A) (A) (A) (A) (A) (A) (A) (A)
                 (A) (A) (A) (A) (A) (A) (A) (A) (A) (A) (A) (A)
                 (A) (A) (A) (A) (A) (A) (A) (A) (A) (A) (A) (A)
                 (A) (A) (A) (A) (A) (A) (A) (A) (A) (A) (A) (A)
                 (A) (A) (A) (A) (A) (A) (A) (A) (A) (A) (A) (A)
                 (A) (A) (A) (A) (A) (A) (A) (A) (A) (A) (A) (A)
                 (A) (A) (A) (A) (A) (A) (A) (A) (A) (A) (A) (A)
                 (A) (A) (A) (A) (A) (A) (A) (A) (A) (A) (A) (A)
                 (A) (A) (A) (A) (A) (A) (A) (A) (A) (A) (A) (A)
                 (A) (A) (A) (A) (A) (A) (A) (A) (A) (A) (A) (A)
                 (A) (A) (A) (A) (A) (A) (A) (A) (A) (A) (A) (A)
                 (A) (A) (A) (A) (A) (A) (A) (A) (A) (A) (A) (A)
                 (A) (A) (A) (A) (A) (A) (A) (A) (A) (A) (A) (A)
                 (A) (A) (A) (A) (A) (A) (A) (A) (A) (A) (A) (A)
                 (A) (A) (A) (A) (A) (A) (A) (A) (A) (A) (A) (A)
                 (A) (A) (A) (A) (A) (A) (A) (A) (A) (A) (A) (A)
                 (A) (A) (A) (A) (A) (A) (A) (A) (A) (A) (A) (A)
                 (A) (A) (A) (A) (A) (A) (A) (A) (A) (A) (A) (A)
                 (A) (A) (A) (A) (A) (A) (A) (A) (A) (A) (A) (A)
                 (A) (A) (A) (A) (A) (A) (A) (A) (A) (A) (A) (A)
                 (A) (A) (A) (A) (A) (A) (A) (A) (A) (A) (A) (A)
                 (A) (A) (A) (A) (A) (A) (A) (A) (A) (A) (A) (A)
                 (A) (A) (A) (A) (A) (A) (A) (A) (A) (A) (A) (A)
                 (A) (A) (A) (A) (A) (A) (A) (A) (A) (A) (A) (A)
                 (A) (A) (A) (A) (A) (A) (A) (A) (A) (A) (A) (A)
                 (A) (A) (A) (A) (A) (A) (A) (A) (A) (A) (A) (A)
                 (A) (A) (A) (A) (A) (A) (A) (A) (A) (A) (A) (A)
                 (A) (A) (A) (A) (A) (A) (A) (A) (A) (A) (A) (A)
                 (A) (A) (A) (A) (A) (A) (A) (A) (A) (A) (A) (A)
                 (A) (A) (A) (A) (A) (A) (A) (A) (A) (A) (A) (A)
                 (A) (A) (A) (A) (A) (A) (A) (A) (A) (A) (A) (A)
                 (A) (A) (A) (A) (A) (A) (A) (A) (A) (A) (A) (A)
                 (A) (A) (A) (A) (A) (A) (A) (A) (A) (A) (A) (A)
                 (A) (A) (A) (A) (A) (A) (A) (A) (A) (A) (A) (A)
                 (A) (A) (A) (A) (A) (A) (A) (A) (A) (A) (A) (A)
                 (A) (A) (A) (A) (A) (A) (A) (A) (A) (A) (A) (A)
                 (A) (A) (A) (A) (A) (A) (A) (A) (A) (A) (A) (A)
                 (A) (A) (A) (A) (A) (A) (A) (A) (A) (A) (A) (A)
                 (A) (A) (A) (A) (A) (A) (A) (A) (A) (A) (A) (A)
                 (A) (A) (A) (A) (A) (A) (A) (A) (A) (A) (A) (A)
                 (A) (A) (A) (A) (A) (A) (A) (A) (A) (A) (A) (A)
                 (A) (A) (A) (A) (A) (A) (A) (A) (A) (A) (A) (A)
                 (A) (A) (A) (A) (A) (A) (A) (A) (A) (A) (A) (A)
                 (A) (A) (A) (A) (A) (A) (A) (A) (A) (A) (A) (A)
                 (A) (A) (A) (A) (A) (A) (A) (A) (A) (A) (A) (A)
                 (A) (A) (A) (A) (A) (A) (A) (A) (A) (A) (A) (A)
                 (A) (A) (A) (A) (A) (A) (A) (A) (A) (A) (A) (A)
                 (A) (A) (A) (A) (A) (A) (A) (A) (A) (A) (A) (A)
                 (A) (A) (A) (A) (A) (A) (A) (A) (A) (A) (A) (A)
                 (A) (A) (A) (A) (A) (A) (A) (A) (A) (A) (A) (A)
                 (A) (A) (A) (A) (A) (A) (A) (A) (A) (A) (A) (A)
                 (A) (A) (A) (A) (A) (A) (A) (A) (A) (A) (A) (A)
                 (A) (A) (A) (A) (A) (A) (A) (A) (A) (A) (A) (A)
                 (A) (A) (A) (A) (A) (A) (A) (A) (A) (A) (A) (A)
                 (A) (A) (A) (A) (A) (A) (A) (A) (A) (A) (A) (A)
                 (A) (A) (A) (A) (A) (A) (A) (A) (A) (A) (A) (A)
                 (A) (A) (A) (A) (A) (A) (A) (A) (A) (A) (A) (A)
                 (A)
 The electronic state is 1-A.
 Alpha  occ. eigenvalues --  -25.20802 -25.20582 -19.68067 -19.68064 -19.63201
 Alpha  occ. eigenvalues --  -19.63167 -15.01541 -14.78741 -14.78741 -14.74782
 Alpha  occ. eigenvalues --  -14.74753 -10.62187 -10.60688 -10.60673 -10.60651
 Alpha  occ. eigenvalues --  -10.59409 -10.59346 -10.59340 -10.58316 -10.58315
 Alpha  occ. eigenvalues --  -10.58276 -10.58268 -10.58263 -10.58239 -10.57576
 Alpha  occ. eigenvalues --  -10.57573 -10.57333 -10.57325 -10.56784 -10.56780
 Alpha  occ. eigenvalues --  -10.56716 -10.56702 -10.56455 -10.56428 -10.56263
 Alpha  occ. eigenvalues --  -10.56143 -10.56126 -10.56028 -10.55996 -10.55994
 Alpha  occ. eigenvalues --  -10.55936 -10.55889 -10.55418 -10.55403 -10.55398
 Alpha  occ. eigenvalues --  -10.55355 -10.55064 -10.55039 -10.55034 -10.54933
 Alpha  occ. eigenvalues --  -10.54526 -10.54520 -10.54232 -10.54231  -7.13449
 Alpha  occ. eigenvalues --   -1.37064  -1.32629  -1.29378  -1.18577  -1.15812
 Alpha  occ. eigenvalues --   -1.15771  -1.10935  -1.09020  -1.02836  -1.02828
 Alpha  occ. eigenvalues --   -1.01235  -0.97516  -0.97477  -0.95684  -0.92475
 Alpha  occ. eigenvalues --   -0.92072  -0.91240  -0.90617  -0.89826  -0.87961
 Alpha  occ. eigenvalues --   -0.87341  -0.86509  -0.86424  -0.86206  -0.85139
 Alpha  occ. eigenvalues --   -0.85107  -0.82608  -0.82342  -0.80677  -0.80371
 Alpha  occ. eigenvalues --   -0.80075  -0.78748  -0.76004  -0.74712  -0.74227
 Alpha  occ. eigenvalues --   -0.74171  -0.73032  -0.72834  -0.71141  -0.70818
 Alpha  occ. eigenvalues --   -0.70149  -0.69870  -0.69685  -0.67742  -0.66360
 Alpha  occ. eigenvalues --   -0.66276  -0.66230  -0.64954  -0.64129  -0.63525
 Alpha  occ. eigenvalues --   -0.62977  -0.62613  -0.62587  -0.62081  -0.61110
 Alpha  occ. eigenvalues --   -0.60738  -0.59287  -0.58992  -0.58704  -0.58437
 Alpha  occ. eigenvalues --   -0.58128  -0.57886  -0.57455  -0.56998  -0.56654
 Alpha  occ. eigenvalues --   -0.56245  -0.55881  -0.54984  -0.54534  -0.54371
 Alpha  occ. eigenvalues --   -0.53842  -0.53378  -0.53148  -0.52913  -0.52458
 Alpha  occ. eigenvalues --   -0.52435  -0.52141  -0.51851  -0.51566  -0.51288
 Alpha  occ. eigenvalues --   -0.50962  -0.50511  -0.49873  -0.49519  -0.49450
 Alpha  occ. eigenvalues --   -0.49317  -0.49050  -0.48918  -0.48596  -0.48388
 Alpha  occ. eigenvalues --   -0.48232  -0.48140  -0.48009  -0.47379  -0.47005
 Alpha  occ. eigenvalues --   -0.46959  -0.46891  -0.46692  -0.46294  -0.45802
 Alpha  occ. eigenvalues --   -0.45698  -0.45540  -0.44892  -0.44775  -0.44498
 Alpha  occ. eigenvalues --   -0.44238  -0.44158  -0.44055  -0.43650  -0.43392
 Alpha  occ. eigenvalues --   -0.43075  -0.42799  -0.42472  -0.41234  -0.41010
 Alpha  occ. eigenvalues --   -0.40784  -0.40676  -0.40600  -0.40263  -0.40052
 Alpha  occ. eigenvalues --   -0.39850  -0.39827  -0.39743  -0.39655  -0.39316
 Alpha  occ. eigenvalues --   -0.39243  -0.37951  -0.34967  -0.34191  -0.34150
 Alpha  occ. eigenvalues --   -0.34111  -0.34088  -0.32441  -0.31937  -0.31905
 Alpha  occ. eigenvalues --   -0.31472  -0.31000  -0.28354  -0.27693  -0.27643
 Alpha  occ. eigenvalues --   -0.23600
 Alpha virt. eigenvalues --   -0.09811  -0.07593  -0.03883  -0.02025  -0.01063
 Alpha virt. eigenvalues --    0.00975   0.01180   0.01948   0.04382   0.04524
 Alpha virt. eigenvalues --    0.05533   0.06542   0.06814   0.06869   0.07029
 Alpha virt. eigenvalues --    0.08102   0.08410   0.08590   0.08909   0.09070
 Alpha virt. eigenvalues --    0.09342   0.09421   0.09524   0.09687   0.09800
 Alpha virt. eigenvalues --    0.10017   0.10145   0.10341   0.10561   0.10656
 Alpha virt. eigenvalues --    0.11418   0.11484   0.11681   0.11845   0.12189
 Alpha virt. eigenvalues --    0.12404   0.12678   0.12805   0.12913   0.12949
 Alpha virt. eigenvalues --    0.13247   0.13369   0.13584   0.13710   0.14072
 Alpha virt. eigenvalues --    0.14481   0.14694   0.14783   0.15229   0.15349
 Alpha virt. eigenvalues --    0.15594   0.15687   0.15863   0.16194   0.16473
 Alpha virt. eigenvalues --    0.16709   0.16967   0.17079   0.17191   0.17389
 Alpha virt. eigenvalues --    0.17421   0.17639   0.17746   0.17802   0.17977
 Alpha virt. eigenvalues --    0.18020   0.18290   0.18320   0.18636   0.18885
 Alpha virt. eigenvalues --    0.19161   0.19238   0.19528   0.19800   0.20068
 Alpha virt. eigenvalues --    0.20180   0.20595   0.20764   0.20837   0.21278
 Alpha virt. eigenvalues --    0.21388   0.21544   0.21815   0.21941   0.22139
 Alpha virt. eigenvalues --    0.22171   0.22351   0.22542   0.22823   0.23059
 Alpha virt. eigenvalues --    0.23318   0.23468   0.23627   0.23803   0.24108
 Alpha virt. eigenvalues --    0.24377   0.24598   0.24892   0.25005   0.25222
 Alpha virt. eigenvalues --    0.25471   0.25584   0.25963   0.26364   0.26500
 Alpha virt. eigenvalues --    0.26716   0.26852   0.26883   0.27082   0.27268
 Alpha virt. eigenvalues --    0.27333   0.27570   0.27786   0.27953   0.28057
 Alpha virt. eigenvalues --    0.28276   0.28497   0.28528   0.28944   0.29028
 Alpha virt. eigenvalues --    0.29287   0.29446   0.29673   0.29961   0.30086
 Alpha virt. eigenvalues --    0.30495   0.30680   0.30978   0.31064   0.31317
 Alpha virt. eigenvalues --    0.31437   0.31595   0.31699   0.31876   0.32254
 Alpha virt. eigenvalues --    0.32508   0.32691   0.32748   0.33027   0.33146
 Alpha virt. eigenvalues --    0.33245   0.33431   0.33493   0.33816   0.33884
 Alpha virt. eigenvalues --    0.34284   0.34449   0.34550   0.34679   0.34812
 Alpha virt. eigenvalues --    0.35039   0.35275   0.35559   0.35725   0.35791
 Alpha virt. eigenvalues --    0.35972   0.36112   0.36198   0.36378   0.36655
 Alpha virt. eigenvalues --    0.36895   0.37111   0.37237   0.37268   0.37406
 Alpha virt. eigenvalues --    0.37826   0.38065   0.38137   0.38278   0.38321
 Alpha virt. eigenvalues --    0.38655   0.38779   0.39185   0.39304   0.39377
 Alpha virt. eigenvalues --    0.39516   0.39669   0.39801   0.39897   0.40099
 Alpha virt. eigenvalues --    0.40230   0.40339   0.40410   0.40586   0.40763
 Alpha virt. eigenvalues --    0.41052   0.41379   0.41499   0.41683   0.41829
 Alpha virt. eigenvalues --    0.41984   0.42153   0.42331   0.42460   0.42509
 Alpha virt. eigenvalues --    0.42571   0.42797   0.42990   0.43087   0.43529
 Alpha virt. eigenvalues --    0.43677   0.43749   0.43914   0.44047   0.44149
 Alpha virt. eigenvalues --    0.44404   0.44534   0.44758   0.44903   0.44979
 Alpha virt. eigenvalues --    0.45501   0.45675   0.45802   0.45980   0.46166
 Alpha virt. eigenvalues --    0.46318   0.46570   0.46740   0.46934   0.47067
 Alpha virt. eigenvalues --    0.47194   0.47310   0.47382   0.47572   0.47750
 Alpha virt. eigenvalues --    0.47842   0.48261   0.48355   0.48479   0.48638
 Alpha virt. eigenvalues --    0.48784   0.48910   0.48942   0.49061   0.49401
 Alpha virt. eigenvalues --    0.49568   0.49597   0.49934   0.49948   0.50226
 Alpha virt. eigenvalues --    0.50453   0.50801   0.51014   0.51102   0.51263
 Alpha virt. eigenvalues --    0.51429   0.51727   0.51846   0.52242   0.52264
 Alpha virt. eigenvalues --    0.52316   0.52381   0.52504   0.52709   0.52778
 Alpha virt. eigenvalues --    0.52847   0.53002   0.53384   0.53488   0.53760
 Alpha virt. eigenvalues --    0.54077   0.54237   0.54699   0.54733   0.55003
 Alpha virt. eigenvalues --    0.55124   0.55211   0.55616   0.56029   0.56168
 Alpha virt. eigenvalues --    0.56376   0.56534   0.56808   0.57031   0.57184
 Alpha virt. eigenvalues --    0.57312   0.57475   0.57660   0.57915   0.58110
 Alpha virt. eigenvalues --    0.58386   0.58636   0.58775   0.59041   0.59116
 Alpha virt. eigenvalues --    0.59625   0.60095   0.60574   0.60625   0.60944
 Alpha virt. eigenvalues --    0.61070   0.61475   0.61741   0.61969   0.61992
 Alpha virt. eigenvalues --    0.62350   0.62601   0.62737   0.62988   0.63162
 Alpha virt. eigenvalues --    0.63367   0.63607   0.63692   0.64083   0.64148
 Alpha virt. eigenvalues --    0.64665   0.64812   0.64988   0.65144   0.65460
 Alpha virt. eigenvalues --    0.65625   0.65735   0.65853   0.66136   0.66616
 Alpha virt. eigenvalues --    0.66765   0.67008   0.67062   0.67220   0.67631
 Alpha virt. eigenvalues --    0.67833   0.67954   0.68330   0.68417   0.68465
 Alpha virt. eigenvalues --    0.68554   0.69020   0.69281   0.69613   0.69832
 Alpha virt. eigenvalues --    0.69915   0.70085   0.70112   0.70359   0.70528
 Alpha virt. eigenvalues --    0.70791   0.70983   0.71312   0.71321   0.71613
 Alpha virt. eigenvalues --    0.71803   0.71977   0.72052   0.72264   0.72362
 Alpha virt. eigenvalues --    0.72548   0.72679   0.72949   0.73139   0.73559
 Alpha virt. eigenvalues --    0.73669   0.73815   0.74241   0.74572   0.74781
 Alpha virt. eigenvalues --    0.75120   0.75288   0.75507   0.75644   0.76084
 Alpha virt. eigenvalues --    0.76312   0.76438   0.76592   0.76874   0.77077
 Alpha virt. eigenvalues --    0.77121   0.77488   0.77780   0.78033   0.78160
 Alpha virt. eigenvalues --    0.78467   0.78672   0.78970   0.79296   0.79625
 Alpha virt. eigenvalues --    0.79883   0.80012   0.80201   0.80458   0.80606
 Alpha virt. eigenvalues --    0.80759   0.81283   0.81528   0.81665   0.81997
 Alpha virt. eigenvalues --    0.82341   0.82687   0.82718   0.83185   0.83534
 Alpha virt. eigenvalues --    0.83823   0.84039   0.84539   0.84588   0.84927
 Alpha virt. eigenvalues --    0.85435   0.85475   0.85835   0.86096   0.86320
 Alpha virt. eigenvalues --    0.86367   0.86759   0.86872   0.87413   0.87778
 Alpha virt. eigenvalues --    0.87802   0.88311   0.88587   0.88826   0.88961
 Alpha virt. eigenvalues --    0.89026   0.89512   0.89778   0.89859   0.90069
 Alpha virt. eigenvalues --    0.90236   0.90646   0.90815   0.91143   0.91282
 Alpha virt. eigenvalues --    0.91579   0.91718   0.91867   0.92249   0.92478
 Alpha virt. eigenvalues --    0.92810   0.93172   0.93427   0.93971   0.94265
 Alpha virt. eigenvalues --    0.94370   0.94482   0.94817   0.95163   0.95233
 Alpha virt. eigenvalues --    0.95623   0.95983   0.96146   0.96444   0.96623
 Alpha virt. eigenvalues --    0.96680   0.97116   0.97582   0.97654   0.97727
 Alpha virt. eigenvalues --    0.97897   0.98038   0.98235   0.98616   0.98837
 Alpha virt. eigenvalues --    0.99293   0.99515   0.99598   0.99886   1.00141
 Alpha virt. eigenvalues --    1.00480   1.00602   1.00675   1.00860   1.01075
 Alpha virt. eigenvalues --    1.01135   1.01321   1.01522   1.01777   1.02016
 Alpha virt. eigenvalues --    1.02207   1.02403   1.02609   1.03095   1.03182
 Alpha virt. eigenvalues --    1.03310   1.03596   1.03834   1.04144   1.04296
 Alpha virt. eigenvalues --    1.04602   1.04854   1.04947   1.05091   1.05246
 Alpha virt. eigenvalues --    1.05304   1.05490   1.05776   1.06043   1.06522
 Alpha virt. eigenvalues --    1.06764   1.06842   1.07195   1.07260   1.07760
 Alpha virt. eigenvalues --    1.07996   1.08202   1.08683   1.08829   1.08999
 Alpha virt. eigenvalues --    1.09199   1.09332   1.09456   1.09879   1.09968
 Alpha virt. eigenvalues --    1.10270   1.10843   1.10857   1.11227   1.11757
 Alpha virt. eigenvalues --    1.11851   1.11929   1.12011   1.12512   1.12663
 Alpha virt. eigenvalues --    1.12718   1.12791   1.13100   1.13324   1.13366
 Alpha virt. eigenvalues --    1.13944   1.14248   1.14486   1.14631   1.14879
 Alpha virt. eigenvalues --    1.15134   1.15532   1.15637   1.16032   1.16406
 Alpha virt. eigenvalues --    1.16594   1.16923   1.17041   1.17138   1.17668
 Alpha virt. eigenvalues --    1.18198   1.18334   1.18670   1.19000   1.19101
 Alpha virt. eigenvalues --    1.19296   1.19523   1.19642   1.19749   1.20102
 Alpha virt. eigenvalues --    1.20374   1.20832   1.21013   1.21152   1.21525
 Alpha virt. eigenvalues --    1.21587   1.21818   1.21979   1.22529   1.22788
 Alpha virt. eigenvalues --    1.22922   1.23106   1.23424   1.23871   1.24061
 Alpha virt. eigenvalues --    1.24298   1.24720   1.24740   1.24776   1.25186
 Alpha virt. eigenvalues --    1.25515   1.25725   1.25810   1.26147   1.26213
 Alpha virt. eigenvalues --    1.26519   1.26935   1.27105   1.27199   1.27549
 Alpha virt. eigenvalues --    1.27863   1.28068   1.28234   1.28632   1.28882
 Alpha virt. eigenvalues --    1.28971   1.29284   1.29715   1.29830   1.29963
 Alpha virt. eigenvalues --    1.30199   1.30347   1.30807   1.30881   1.31212
 Alpha virt. eigenvalues --    1.31524   1.31778   1.31920   1.32123   1.32678
 Alpha virt. eigenvalues --    1.32795   1.33043   1.33247   1.33304   1.33769
 Alpha virt. eigenvalues --    1.33845   1.33958   1.34241   1.34536   1.34720
 Alpha virt. eigenvalues --    1.35383   1.35498   1.35623   1.35959   1.36053
 Alpha virt. eigenvalues --    1.36402   1.36666   1.36910   1.37181   1.37492
 Alpha virt. eigenvalues --    1.37751   1.38153   1.38370   1.38510   1.38817
 Alpha virt. eigenvalues --    1.39433   1.39536   1.39652   1.39920   1.40228
 Alpha virt. eigenvalues --    1.40518   1.40553   1.40982   1.41500   1.41994
 Alpha virt. eigenvalues --    1.42149   1.42394   1.42510   1.42886   1.43026
 Alpha virt. eigenvalues --    1.43509   1.43796   1.43954   1.44216   1.44346
 Alpha virt. eigenvalues --    1.44852   1.45176   1.45213   1.45530   1.45774
 Alpha virt. eigenvalues --    1.46013   1.46158   1.46396   1.46501   1.46765
 Alpha virt. eigenvalues --    1.46963   1.47416   1.47453   1.47612   1.47792
 Alpha virt. eigenvalues --    1.47864   1.48357   1.48416   1.48849   1.49091
 Alpha virt. eigenvalues --    1.49268   1.49487   1.49746   1.49833   1.50171
 Alpha virt. eigenvalues --    1.50254   1.50500   1.50755   1.51049   1.51167
 Alpha virt. eigenvalues --    1.51576   1.51785   1.52115   1.52354   1.52631
 Alpha virt. eigenvalues --    1.52882   1.52987   1.53022   1.53439   1.53632
 Alpha virt. eigenvalues --    1.54256   1.54464   1.54521   1.54671   1.54964
 Alpha virt. eigenvalues --    1.55264   1.55761   1.55832   1.55998   1.56260
 Alpha virt. eigenvalues --    1.56441   1.56712   1.56893   1.56990   1.57101
 Alpha virt. eigenvalues --    1.57305   1.57394   1.57880   1.58132   1.58407
 Alpha virt. eigenvalues --    1.58719   1.58992   1.59053   1.59255   1.59475
 Alpha virt. eigenvalues --    1.59608   1.59781   1.60210   1.60620   1.60765
 Alpha virt. eigenvalues --    1.61111   1.61550   1.61787   1.62014   1.62361
 Alpha virt. eigenvalues --    1.62464   1.62742   1.63010   1.63200   1.63326
 Alpha virt. eigenvalues --    1.63581   1.63804   1.64402   1.65215   1.65294
 Alpha virt. eigenvalues --    1.65514   1.65691   1.65862   1.66150   1.66272
 Alpha virt. eigenvalues --    1.66649   1.67047   1.67408   1.67506   1.67574
 Alpha virt. eigenvalues --    1.67818   1.68076   1.68518   1.68806   1.68942
 Alpha virt. eigenvalues --    1.69219   1.69330   1.69489   1.69830   1.70133
 Alpha virt. eigenvalues --    1.70759   1.71162   1.71348   1.71564   1.71622
 Alpha virt. eigenvalues --    1.72096   1.72340   1.72537   1.72742   1.73205
 Alpha virt. eigenvalues --    1.73658   1.73715   1.73993   1.74250   1.74510
 Alpha virt. eigenvalues --    1.75238   1.75317   1.75604   1.75916   1.76539
 Alpha virt. eigenvalues --    1.76845   1.77238   1.77427   1.77798   1.78247
 Alpha virt. eigenvalues --    1.78816   1.79160   1.79639   1.80042   1.80399
 Alpha virt. eigenvalues --    1.80648   1.80824   1.81114   1.81205   1.81655
 Alpha virt. eigenvalues --    1.81871   1.82141   1.82582   1.82877   1.83286
 Alpha virt. eigenvalues --    1.83766   1.83830   1.84153   1.84237   1.84487
 Alpha virt. eigenvalues --    1.84773   1.85536   1.86545   1.86824   1.86939
 Alpha virt. eigenvalues --    1.87528   1.87907   1.88012   1.88208   1.88998
 Alpha virt. eigenvalues --    1.89219   1.89284   1.89692   1.89820   1.90267
 Alpha virt. eigenvalues --    1.90516   1.90947   1.91459   1.92388   1.92721
 Alpha virt. eigenvalues --    1.92777   1.93790   1.94396   1.94647   1.95563
 Alpha virt. eigenvalues --    1.96050   1.96486   1.96677   1.96849   1.97131
 Alpha virt. eigenvalues --    1.97565   1.98090   1.98649   1.98788   1.99275
 Alpha virt. eigenvalues --    1.99406   1.99868   2.00084   2.00205   2.00470
 Alpha virt. eigenvalues --    2.01190   2.01547   2.01706   2.01968   2.02426
 Alpha virt. eigenvalues --    2.02691   2.02996   2.04057   2.04508   2.04972
 Alpha virt. eigenvalues --    2.05414   2.05604   2.05842   2.06048   2.06404
 Alpha virt. eigenvalues --    2.06796   2.07171   2.07639   2.08143   2.08327
 Alpha virt. eigenvalues --    2.08430   2.08800   2.09012   2.09455   2.09992
 Alpha virt. eigenvalues --    2.10328   2.10572   2.10633   2.10925   2.11394
 Alpha virt. eigenvalues --    2.11653   2.11828   2.12163   2.12514   2.12647
 Alpha virt. eigenvalues --    2.13635   2.13787   2.14502   2.14769   2.14953
 Alpha virt. eigenvalues --    2.15461   2.15763   2.16493   2.16567   2.17020
 Alpha virt. eigenvalues --    2.17242   2.17453   2.17798   2.18416   2.18532
 Alpha virt. eigenvalues --    2.19279   2.19347   2.19886   2.20059   2.20253
 Alpha virt. eigenvalues --    2.22248   2.22801   2.23671   2.23763   2.24060
 Alpha virt. eigenvalues --    2.24664   2.25104   2.26026   2.26212   2.26593
 Alpha virt. eigenvalues --    2.26981   2.27051   2.27411   2.27762   2.28287
 Alpha virt. eigenvalues --    2.29001   2.29209   2.29500   2.30077   2.30202
 Alpha virt. eigenvalues --    2.30742   2.31788   2.32575   2.32921   2.33348
 Alpha virt. eigenvalues --    2.34124   2.34382   2.34605   2.34785   2.34963
 Alpha virt. eigenvalues --    2.35515   2.35712   2.35932   2.36101   2.36717
 Alpha virt. eigenvalues --    2.36993   2.37376   2.37719   2.37856   2.38423
 Alpha virt. eigenvalues --    2.38648   2.39075   2.39522   2.40068   2.40187
 Alpha virt. eigenvalues --    2.40427   2.41008   2.41026   2.41111   2.42007
 Alpha virt. eigenvalues --    2.42706   2.43791   2.43853   2.44816   2.45049
 Alpha virt. eigenvalues --    2.45145   2.45753   2.46360   2.47012   2.47216
 Alpha virt. eigenvalues --    2.48076   2.48499   2.48923   2.49568   2.49721
 Alpha virt. eigenvalues --    2.49929   2.50942   2.51451   2.52284   2.53141
 Alpha virt. eigenvalues --    2.53739   2.53985   2.54771   2.55216   2.55672
 Alpha virt. eigenvalues --    2.55789   2.56128   2.56540   2.57073   2.57296
 Alpha virt. eigenvalues --    2.57624   2.58378   2.58933   2.59132   2.59760
 Alpha virt. eigenvalues --    2.60098   2.60344   2.60472   2.61044   2.61378
 Alpha virt. eigenvalues --    2.62103   2.62213   2.62481   2.62987   2.63074
 Alpha virt. eigenvalues --    2.63298   2.63401   2.63663   2.64058   2.64262
 Alpha virt. eigenvalues --    2.64702   2.64839   2.65209   2.65309   2.65706
 Alpha virt. eigenvalues --    2.65934   2.66081   2.66891   2.67088   2.67333
 Alpha virt. eigenvalues --    2.67529   2.67691   2.67904   2.68220   2.68403
 Alpha virt. eigenvalues --    2.68947   2.69102   2.69737   2.70106   2.70482
 Alpha virt. eigenvalues --    2.70832   2.70898   2.71414   2.71447   2.71695
 Alpha virt. eigenvalues --    2.72110   2.72403   2.72645   2.72883   2.73175
 Alpha virt. eigenvalues --    2.73525   2.73833   2.74010   2.74111   2.74372
 Alpha virt. eigenvalues --    2.74711   2.74900   2.74975   2.75259   2.75386
 Alpha virt. eigenvalues --    2.75929   2.76160   2.76460   2.76701   2.76935
 Alpha virt. eigenvalues --    2.77050   2.77496   2.77559   2.77854   2.78048
 Alpha virt. eigenvalues --    2.78485   2.78576   2.78937   2.79322   2.79522
 Alpha virt. eigenvalues --    2.79590   2.79986   2.80484   2.80606   2.80978
 Alpha virt. eigenvalues --    2.81234   2.81452   2.81569   2.81662   2.81873
 Alpha virt. eigenvalues --    2.82142   2.82269   2.82652   2.82882   2.83162
 Alpha virt. eigenvalues --    2.83231   2.83542   2.83867   2.84281   2.84402
 Alpha virt. eigenvalues --    2.84583   2.84907   2.84997   2.85391   2.85814
 Alpha virt. eigenvalues --    2.85873   2.86251   2.86663   2.86877   2.87246
 Alpha virt. eigenvalues --    2.87493   2.87585   2.87939   2.87996   2.88204
 Alpha virt. eigenvalues --    2.88556   2.88852   2.88968   2.89108   2.89364
 Alpha virt. eigenvalues --    2.89625   2.89871   2.90663   2.90764   2.91022
 Alpha virt. eigenvalues --    2.91493   2.91814   2.91977   2.92145   2.92290
 Alpha virt. eigenvalues --    2.92364   2.92679   2.92950   2.93062   2.93293
[...]
 Alpha virt. eigenvalues --    3.85484   3.85816   3.85900   3.86102   3.86390
 Alpha virt. eigenvalues --    3.86580   3.86921   3.86946   3.87089   3.87204
 Alpha virt. eigenvalues --    3.87284   3.87784   3.88100   3.88328   3.88621
 Alpha virt. eigenvalues --    3.88770   3.89183   3.89509   3.89860   3.90125
 Alpha virt. eigenvalues --    3.90228   3.90318   3.90468   3.90728   3.91112
 Alpha virt. eigenvalues --    3.91450   3.91610   3.91807   3.91902   3.92006
 Alpha virt. eigenvalues --    3.92334   3.92703   3.93233   3.93305   3.93389
 Alpha virt. eigenvalues --    3.93658   3.94133   3.94332   3.94480   3.95049
 Alpha virt. eigenvalues --    3.95184   3.95409   3.95831   3.96567   3.96683
 Alpha virt. eigenvalues --    3.96931   3.97311   3.97818   3.97955   3.98161
 Alpha virt. eigenvalues --    3.98360   3.98709   3.99034   3.99168   3.99264
 Alpha virt. eigenvalues --    3.99456   4.00074   4.00253   4.00669   4.00848
 Alpha virt. eigenvalues --    4.01174   4.01316   4.01457   4.01633   4.01784
 Alpha virt. eigenvalues --    4.01874   4.02052   4.02194   4.02552   4.02755
 Alpha virt. eigenvalues --    4.03314   4.03452   4.03647   4.03703   4.04002
 Alpha virt. eigenvalues --    4.04294   4.04703   4.04960   4.05168   4.05480
 Alpha virt. eigenvalues --    4.05626   4.05845   4.06060   4.06763   4.06852
 Alpha virt. eigenvalues --    4.06945   4.06994   4.07517   4.07608   4.08000
 Alpha virt. eigenvalues --    4.08192   4.08483   4.08729   4.08829   4.09022
 Alpha virt. eigenvalues --    4.09405   4.09812   4.10096   4.10359   4.10757
 Alpha virt. eigenvalues --    4.10846   4.10994   4.11297   4.11579   4.11789
 Alpha virt. eigenvalues --    4.11836   4.12099   4.12325   4.12551   4.13126
 Alpha virt. eigenvalues --    4.13383   4.14050   4.14314   4.14377   4.14902
 Alpha virt. eigenvalues --    4.15063   4.15409   4.15774   4.15941   4.16235
 Alpha virt. eigenvalues --    4.16465   4.16757   4.17241   4.17528   4.17659
 Alpha virt. eigenvalues --    4.17857   4.18013   4.18294   4.18438   4.18617
 Alpha virt. eigenvalues --    4.18877   4.19219   4.19460   4.19765   4.19964
 Alpha virt. eigenvalues --    4.20402   4.20472   4.20790   4.21021   4.21161
 Alpha virt. eigenvalues --    4.21355   4.21667   4.22060   4.22539   4.22626
 Alpha virt. eigenvalues --    4.22935   4.22999   4.23263   4.23787   4.23908
 Alpha virt. eigenvalues --    4.24149   4.24245   4.24350   4.24728   4.24915
 Alpha virt. eigenvalues --    4.25197   4.25571   4.25696   4.25975   4.26115
 Alpha virt. eigenvalues --    4.26268   4.26431   4.27036   4.27491   4.27830
 Alpha virt. eigenvalues --    4.27922   4.28194   4.28383   4.28561   4.28699
 Alpha virt. eigenvalues --    4.29221   4.29292   4.29772   4.29958   4.30467
 Alpha virt. eigenvalues --    4.30777   4.31022   4.31125   4.31500   4.31748
 Alpha virt. eigenvalues --    4.31799   4.32486   4.32762   4.33059   4.33285
 Alpha virt. eigenvalues --    4.33517   4.33923   4.34574   4.34755   4.34874
 Alpha virt. eigenvalues --    4.35402   4.35517   4.35842   4.36499   4.37025
 Alpha virt. eigenvalues --    4.37127   4.37743   4.37933   4.38349   4.38481
 Alpha virt. eigenvalues --    4.38957   4.39329   4.40225   4.40499   4.41530
 Alpha virt. eigenvalues --    4.41781   4.42084   4.42497   4.42692   4.42885
 Alpha virt. eigenvalues --    4.43030   4.43368   4.43905   4.45299   4.46146
 Alpha virt. eigenvalues --    4.46667   4.47490   4.47850   4.48854   4.49085
 Alpha virt. eigenvalues --    4.50008   4.50048   4.50421   4.50519   4.51013
 Alpha virt. eigenvalues --    4.51252   4.51331   4.51737   4.52313   4.52845
 Alpha virt. eigenvalues --    4.53283   4.53392   4.53722   4.54392   4.54628
 Alpha virt. eigenvalues --    4.55746   4.56247   4.56808   4.57216   4.58114
 Alpha virt. eigenvalues --    4.58313   4.58524   4.58677   4.59887   4.59973
 Alpha virt. eigenvalues --    4.60357   4.60574   4.60871   4.61462   4.61654
 Alpha virt. eigenvalues --    4.61704   4.61993   4.62759   4.63088   4.63272
 Alpha virt. eigenvalues --    4.63501   4.63966   4.64273   4.64514   4.64704
 Alpha virt. eigenvalues --    4.64927   4.65158   4.65422   4.65921   4.66239
 Alpha virt. eigenvalues --    4.66405   4.67027   4.67397   4.67947   4.68261
 Alpha virt. eigenvalues --    4.68473   4.68648   4.69022   4.69355   4.69558
 Alpha virt. eigenvalues --    4.69670   4.70077   4.70579   4.70853   4.71339
 Alpha virt. eigenvalues --    4.71885   4.72210   4.72469   4.72763   4.73222
 Alpha virt. eigenvalues --    4.73606   4.74553   4.74867   4.74922   4.75792
 Alpha virt. eigenvalues --    4.76120   4.76256   4.76825   4.76975   4.77233
 Alpha virt. eigenvalues --    4.78025   4.78625   4.78999   4.79571   4.79722
 Alpha virt. eigenvalues --    4.80116   4.80328   4.80800   4.81352   4.81894
 Alpha virt. eigenvalues --    4.82269   4.82700   4.83125   4.83672   4.84137
 Alpha virt. eigenvalues --    4.84765   4.84957   4.85062   4.85401   4.85713
 Alpha virt. eigenvalues --    4.86151   4.86218   4.87070   4.88007   4.88848
 Alpha virt. eigenvalues --    4.89179   4.89843   4.90638   4.90955   4.91029
 Alpha virt. eigenvalues --    4.91318   4.91927   4.92745   4.92895   4.93180
 Alpha virt. eigenvalues --    4.93430   4.93594   4.93961   4.94086   4.94351
 Alpha virt. eigenvalues --    4.94478   4.94614   4.95128   4.95441   4.95631
 Alpha virt. eigenvalues --    4.95978   4.96279   4.96395   4.96752   4.96971
 Alpha virt. eigenvalues --    4.97711   4.97860   4.98775   4.99192   4.99832
 Alpha virt. eigenvalues --    5.00704   5.01172   5.01239   5.02476   5.03381
 Alpha virt. eigenvalues --    5.03647   5.03834   5.04295   5.04427   5.05111
 Alpha virt. eigenvalues --    5.05829   5.06277   5.06374   5.06910   5.07021
 Alpha virt. eigenvalues --    5.07812   5.07940   5.08310   5.08523   5.09016
 Alpha virt. eigenvalues --    5.09164   5.09397   5.09761   5.09917   5.10108
 Alpha virt. eigenvalues --    5.10619   5.11642   5.11959   5.12141   5.12449
 Alpha virt. eigenvalues --    5.12836   5.12973   5.13460   5.13625   5.13886
 Alpha virt. eigenvalues --    5.13980   5.14176   5.14640   5.14893   5.15011
 Alpha virt. eigenvalues --    5.15849   5.16542   5.16876   5.18588   5.18957
 Alpha virt. eigenvalues --    5.19286   5.19464   5.20602   5.20645   5.21082
 Alpha virt. eigenvalues --    5.21323   5.21686   5.22459   5.22527   5.23647
 Alpha virt. eigenvalues --    5.23954   5.23976   5.24470   5.24950   5.25156
 Alpha virt. eigenvalues --    5.25596   5.25847   5.26214   5.26433   5.26727
 Alpha virt. eigenvalues --    5.27255   5.27880   5.28198   5.28478   5.28679
 Alpha virt. eigenvalues --    5.28715   5.29196   5.29303   5.30101   5.30426
 Alpha virt. eigenvalues --    5.30651   5.31094   5.31689   5.31898   5.32184
 Alpha virt. eigenvalues --    5.33268   5.33317   5.33921   5.34270   5.34511
 Alpha virt. eigenvalues --    5.35350   5.35763   5.35993   5.36604   5.36812
 Alpha virt. eigenvalues --    5.37269   5.37599   5.38303   5.38397   5.38718
 Alpha virt. eigenvalues --    5.39347   5.39751   5.40164   5.40461   5.40628
 Alpha virt. eigenvalues --    5.40822   5.41093   5.41580   5.42516   5.43175
 Alpha virt. eigenvalues --    5.43306   5.43932   5.44422   5.44707   5.45067
 Alpha virt. eigenvalues --    5.45470   5.45907   5.47502   5.48772   5.49430
 Alpha virt. eigenvalues --    5.49885   5.50184   5.50605   5.50891   5.51668
 Alpha virt. eigenvalues --    5.51814   5.52429   5.53145   5.53194   5.54700
 Alpha virt. eigenvalues --    5.55356   5.55963   5.56562   5.57064   5.57233
 Alpha virt. eigenvalues --    5.57451   5.58119   5.58479   5.58954   5.59243
 Alpha virt. eigenvalues --    5.59937   5.60296   5.60729   5.60982   5.61211
 Alpha virt. eigenvalues --    5.61742   5.62176   5.62302   5.63792   5.63970
 Alpha virt. eigenvalues --    5.64008   5.65312   5.65551   5.65658   5.65997
 Alpha virt. eigenvalues --    5.66329   5.66418   5.66780   5.67225   5.67978
 Alpha virt. eigenvalues --    5.68788   5.69470   5.69832   5.69989   5.70967
 Alpha virt. eigenvalues --    5.71433   5.71866   5.72637   5.73192   5.73878
 Alpha virt. eigenvalues --    5.74449   5.74925   5.75778   5.77886   5.78405
 Alpha virt. eigenvalues --    5.79194   5.79393   5.81743   5.83758   5.84017
 Alpha virt. eigenvalues --    5.86018   5.86372   5.87056   5.87735   5.88141
 Alpha virt. eigenvalues --    5.88821   5.91688   5.92366   5.92613   5.94520
 Alpha virt. eigenvalues --    5.96437   5.98150   5.98843   5.99411   6.00881
 Alpha virt. eigenvalues --    6.01158   6.02417   6.02857   6.06208   6.06752
 Alpha virt. eigenvalues --    6.07562   6.09328   6.10285   6.14782   6.15203
 Alpha virt. eigenvalues --    6.15412   6.16123   6.22258   6.25273   6.25419
 Alpha virt. eigenvalues --    6.25532   6.28086   6.34977   6.36145   6.37425
 Alpha virt. eigenvalues --    6.38086   6.38435   6.38609   6.40845   6.43153
 Alpha virt. eigenvalues --    6.56954   6.57280   6.75457   6.79791   6.80474
 Alpha virt. eigenvalues --    6.80760   6.83101   6.87410   6.89522   6.89575
 Alpha virt. eigenvalues --    6.94202   6.94570   6.97199   6.98778   6.99005
 Alpha virt. eigenvalues --    6.99886   7.00665   7.00747   7.04884   7.08425
 Alpha virt. eigenvalues --    7.10742   7.16965   7.20701   7.23027   7.23712
 Alpha virt. eigenvalues --    7.27359   7.29617   7.29894   7.32963   7.33991
 Alpha virt. eigenvalues --    7.34435   7.37446   7.37597   7.45355   7.50874
 Alpha virt. eigenvalues --    8.46090   8.46824   8.55899   8.57859   8.82426
 Alpha virt. eigenvalues --    8.85858   8.90854   8.91507   8.92212   8.99729
 Alpha virt. eigenvalues --   15.85805  22.86663  22.88617  22.96846  22.98678
 Alpha virt. eigenvalues --   23.03320  23.12859  23.13785  23.14764  23.19373
 Alpha virt. eigenvalues --   23.20680  23.21926  23.24505  23.24808  23.27331
 Alpha virt. eigenvalues --   23.28842  23.29430  23.29762  23.32333  23.33569
 Alpha virt. eigenvalues --   23.34562  23.34744  23.36489  23.37182  23.37834
 Alpha virt. eigenvalues --   23.39375  23.40039  23.45193  23.46504  23.47784
 Alpha virt. eigenvalues --   23.51392  23.52023  23.55276  23.55680  23.59546
 Alpha virt. eigenvalues --   23.60826  23.62765  23.73381  23.78244  23.87178
 Alpha virt. eigenvalues --   23.89102  24.14549  24.15205  24.19457  32.59561
 Alpha virt. eigenvalues --   32.99180  32.99520  33.13616  33.29646  44.20391
 Alpha virt. eigenvalues --   44.25096  44.47085  44.47499  57.34862  57.54128
          Condensed to atoms (all electrons):
 Mulliken charges:
               1
     1  C   -0.434173
     2  C   -0.022286
     3  C   -0.089238
     4  C    0.021215
     5  C   -0.124164
     6  C   -0.058900
     7  C    0.000908
     8  C   -0.156421
     9  C   -0.155254
    10  C    0.030396
    11  C   -0.288828
    12  N   -0.197535
    13  C   -0.254372
    14  C   -0.021445
    15  O   -0.357814
    16  C   -0.087025
    17  C   -0.159966
    18  C   -0.110898
    19  C   -0.141733
    20  N   -0.102468
    21  C    0.101311
    22  C    0.157824
    23  C   -0.257997
    24  C   -0.185081
    25  C   -0.037787
    26  C   -0.028313
    27  N    0.493603
    28  O   -0.366925
    29  O   -0.366947
    30  C   -0.045871
    31  C   -0.157280
    32  C    0.103360
    33  C   -0.023264
    34  C   -0.434585
    35  C   -0.090725
    36  C    0.022232
    37  C   -0.121450
    38  C   -0.064227
    39  C    0.003084
    40  C   -0.125961
    41  C   -0.175662
    42  C    0.000313
    43  C   -0.234410
    44  N   -0.206627
    45  C   -0.151918
    46  C   -0.094590
    47  O   -0.361182
    48  C   -0.046543
    49  C   -0.228357
    50  C   -0.120843
    51  C   -0.158556
    52  N   -0.104531
    53  B    0.344518
    54  F   -0.334143
    55  F   -0.366046
    56  H    0.162325
    57  H    0.133723
    58  H    0.160798
    59  H    0.167196
    60  H    0.141389
    61  H    0.113149
    62  H    0.148862
    63  H    0.147649
    64  H    0.152847
    65  H    0.153508
    66  H    0.153527
    67  H    0.139700
    68  H    0.121585
    69  H    0.120447
    70  H    0.128565
    71  H    0.126349
    72  H    0.121981
    73  H    0.120547
    74  H    0.146270
    75  H    0.143422
    76  H    0.183718
    77  H    0.198550
    78  H    0.198148
    79  H    0.178362
    80  H    0.164306
    81  H    0.158999
    82  H    0.133731
    83  H    0.167238
    84  H    0.141006
    85  H    0.114854
    86  H    0.141472
    87  H    0.147159
    88  H    0.162124
    89  H    0.144090
    90  H    0.122880
    91  H    0.128356
    92  H    0.127495
    93  H    0.131899
    94  H    0.132173
    95  H    0.120434
    96  H    0.130975
    97  H    0.145057
    98  H    0.147715
    99  H    0.148994
 Sum of Mulliken charges =  -0.00000
 Mulliken charges with hydrogens summed into heavy atoms:
               1
     1  C    0.022673
     2  C   -0.022286
     3  C    0.077958
     4  C    0.021215
     5  C    0.017225
     6  C    0.054248
     7  C    0.000908
     8  C   -0.007559
     9  C   -0.007605
    10  C    0.030396
    11  C    0.017527
    12  N   -0.197535
    13  C    0.038855
    14  C    0.220587
    15  O   -0.357814
    16  C    0.167889
    17  C    0.082562
    18  C    0.035372
    19  C    0.001689
    20  N   -0.102468
    21  C    0.101311
    22  C    0.157824
    23  C   -0.257997
    24  C   -0.001363
    25  C    0.160764
    26  C   -0.028313
    27  N    0.493603
    28  O   -0.366925
    29  O   -0.366947
    30  C    0.152277
    31  C    0.021082
    32  C    0.103360
    33  C   -0.023264
    34  C    0.022451
    35  C    0.076512
    36  C    0.022232
    37  C    0.019557
    38  C    0.050627
    39  C    0.003084
    40  C    0.015511
    41  C   -0.028502
    42  C    0.000313
    43  C    0.071804
    44  N   -0.206627
    45  C    0.099318
    46  C    0.164805
    47  O   -0.361182
    48  C    0.206064
    49  C    0.047675
    50  C    0.026872
    51  C   -0.009562
    52  N   -0.104531
    53  B    0.344518
    54  F   -0.334143
    55  F   -0.366046
 Electronic spatial extent (au):  <R**2>=          73523.9418
 Charge=              0.0000 electrons
 Dipole moment (field-independent basis, Debye):
    X=              2.8556    Y=             -1.5735    Z=              0.5843  Tot=              3.3123
 Quadrupole moment (field-independent basis, Debye-Ang):
   XX=           -351.6049   YY=           -264.9860   ZZ=           -320.9041
   XY=            -13.5437   XZ=             -4.8498   YZ=             -0.7374
 Traceless Quadrupole moment (field-independent basis, Debye-Ang):
   XX=            -39.1066   YY=             47.5123   ZZ=             -8.4057
   XY=            -13.5437   XZ=             -4.8498   YZ=             -0.7374
 Octapole moment (field-independent basis, Debye-Ang**2):
  XXX=           1358.7930  YYY=           -314.4254  ZZZ=              2.9755  XYY=             87.2164
  XXY=            -97.9366  XXZ=            -19.3375  XZZ=             34.2718  YZZ=             -7.4707
  YYZ=            -68.9040  XYZ=            -47.7375
 Hexadecapole moment (field-independent basis, Debye-Ang**3):
 XXXX=         -71219.1354 YYYY=         -39539.4799 ZZZZ=          -1675.5431 XXXY=            161.8661
 XXXZ=           -235.9407 YYYX=          -2973.2530 YYYZ=            -93.5478 ZZZX=             20.7524
 ZZZY=           -273.0000 XXYY=         -14212.7340 XXZZ=          -9196.8580 YYZZ=          -6898.7049
 XXYZ=           -189.6604 YYXZ=           -305.1419 ZZXY=            -51.1161
 N-N= 6.635790884425D+03 E-N=-1.901483957383D+04  KE= 2.450866225594D+03
 No NMR shielding tensors so no spin-rotation constants.
 Leave Link  601 at Fri Nov  7 16:59:00 2025, MaxMem= 30870077440 cpu:             159.2 elap:               3.0
 (Enter /public/software/gauss/g16/l9999.exe)
 1\1\GINC-CU015\SP\RM062X\def2TZVPP\C43H44B1F2N5O4\BAIDING\07-Nov-2025\
 0\\#p M062X/DEF2TZVPP scrf=(solvent=water) em=GD3\\Energy calculation 
 for M100036085\\0,1\C,0,5.68763,-3.086086,0.57116\C,0,4.292391,-2.5524
 85,0.450968\C,0,3.148528,-3.321192,0.577193\C,0,2.01595,-2.48268,0.419
 315\C,0,0.618755,-2.83229,0.474562\C,0,0.171642,-4.110525,0.550429\C,0
 ,-1.219911,-4.542786,0.621099\C,0,-2.316318,-3.652136,0.621418\C,0,-3.
 618627,-4.127058,0.693592\C,0,-3.890381,-5.504992,0.768508\C,0,-5.3116
 32,-6.015833,0.868245\N,0,-6.10581,-5.754778,-0.354056\C,0,-5.609823,-
 6.492479,-1.524656\C,0,-5.728029,-8.022789,-1.36712\O,0,-6.809195,-8.3
 81554,-0.491954\C,0,-7.9149,-7.489467,-0.647029\C,0,-7.541785,-6.07181
 4,-0.165537\C,0,-2.806068,-6.390596,0.769707\C,0,-1.496016,-5.921135,0
 .69782\N,0,2.450778,-1.207043,0.205767\C,0,3.847657,-1.205757,0.211042
 \C,0,4.558156,-0.00755,0.027851\C,0,6.052638,-0.03223,0.025446\C,0,6.7
 64125,0.158109,1.219508\C,0,8.154588,0.136875,1.223581\C,0,8.820894,-0
 .076131,0.016914\N,0,10.281162,-0.098654,0.012317\O,0,10.863968,-0.280
 107,-1.061687\O,0,10.876014,0.064741,1.082616\C,0,8.140765,-0.268719,-
 1.185507\C,0,6.750286,-0.245748,-1.172815\C,0,3.886716,1.214955,-0.141
 068\C,0,4.375206,2.558496,-0.300557\C,0,5.787238,3.057947,-0.351051\C,
 0,3.257099,3.36851,-0.393894\C,0,2.097419,2.5577,-0.300175\C,0,0.71236
 3,2.954164,-0.338439\C,0,0.304441,4.221989,-0.595174\C,0,-1.073296,4.7
 00176,-0.638921\C,0,-1.30507,6.071464,-0.876686\C,0,-2.594941,6.587783
 ,-0.924215\C,0,-3.710414,5.756843,-0.740775\C,0,-5.119178,6.308928,-0.
 810104\N,0,-5.429115,7.248632,0.290368\C,0,-5.587978,6.569648,1.599243
 \C,0,-7.060311,6.255448,1.935344\O,0,-7.80449,5.992152,0.743409\C,0,-7
 .914535,7.17126,-0.070056\C,0,-6.638513,8.034555,0.010803\C,0,-3.48411
 9,4.390847,-0.51177\C,0,-2.196073,3.867327,-0.459977\N,0,2.490404,1.26
 024,-0.14359\B,0,1.574757,0.009551,-0.189803\F,0,1.053912,-0.164396,-1
 .479676\F,0,0.512082,0.154564,0.718354\H,0,6.235674,-2.619996,1.395718
 \H,0,5.652317,-4.162992,0.754461\H,0,6.271635,-2.91591,-0.338383\H,0,3
 .119491,-4.38223,0.782858\H,0,-0.084595,-2.007952,0.461165\H,0,0.89988
 5,-4.919234,0.557952\H,0,-2.146654,-2.581337,0.570565\H,0,-4.442672,-3
 .419348,0.699435\H,0,-5.289374,-7.079895,1.143257\H,0,-5.816036,-5.490
 793,1.6867\H,0,-6.191729,-6.159861,-2.390746\H,0,-4.568084,-6.225637,-
 1.721866\H,0,-5.866901,-8.49221,-2.353281\H,0,-4.828096,-8.448952,-0.9
 14388\H,0,-8.236038,-7.47475,-1.698831\H,0,-8.73758,-7.899357,-0.05482
 4\H,0,-8.154495,-5.345358,-0.71624\H,0,-7.782091,-5.95717,0.894369\H,0
 ,-2.990484,-7.459795,0.832073\H,0,-0.669208,-6.626354,0.700747\H,0,6.2
 27206,0.323351,2.147152\H,0,8.713287,0.282804,2.139013\H,0,8.68882,-0.
 43252,-2.104374\H,0,6.2026,-0.394005,-2.097023\H,0,6.325102,2.863578,0
 .581995\H,0,6.360606,2.587673,-1.155482\H,0,5.786498,4.137556,-0.52133
 4\H,0,3.263918,4.443979,-0.503993\H,0,-0.016155,2.178443,-0.133734\H,0
 ,1.056311,4.984295,-0.789664\H,0,-0.454282,6.730738,-1.026853\H,0,-2.7
 39417,7.647839,-1.112131\H,0,-5.229581,6.873465,-1.743109\H,0,-5.82456
 ,5.467596,-0.858365\H,0,-4.999019,5.649905,1.585189\H,0,-5.175688,7.20
 0541,2.397914\H,0,-7.135494,5.360756,2.559333\H,0,-7.523649,7.086577,2
 .486899\H,0,-8.088457,6.812768,-1.088683\H,0,-8.790736,7.763139,0.2371
 29\H,0,-6.512013,8.587255,-0.92508\H,0,-6.740456,8.777121,0.80964\H,0,
 -4.334857,3.728338,-0.375929\H,0,-2.064391,2.804743,-0.282389\\Version
 =ES64L-G16RevA.03\State=1-A\HF=-2464.2761742\RMSD=2.325e-09\Dipole=-1.
 1234767,0.6190444,0.229879\Quadrupole=-29.0747885,35.324237,-6.2494485
 ,-10.0694108,3.6056839,0.5482727\PG=C01 [X(C43H44B1F2N5O4)]\\@


 EDUCATION IS NOT TRAINING BUT RATHER THE PROCESS THAT EQUIPS YOU TO
 ENTERTAIN YOURSELF, A FRIEND, OR AN IDEA.  -- WALLACE STERLING
 Job cpu time:       0 days 22 hours  0 minutes  1.6 seconds.
 Elapsed time:       0 days  0 hours 21 minutes  1.2 seconds.
 File lengths (MBytes):  RWF=   3540 Int=      0 D2E=      0 Chk=    312 Scr=      1
 Normal termination of Gaussian 16 at Fri Nov  7 16:59:01 2025.
