 Entering Gaussian System, Link 0=g16
 Input=M100034662_reduced_sp.gjf
 Output=M100034662_reduced_sp.log
 Initial command:
 /public/software/gauss/g16/l1.exe "/public/home/baiding/1105_34662/freq/tmp_M100034662_reduced_sp_1568998/Gau-3949182.inp" -scrdir="/public/home/baiding/1105_34662/freq/tmp_M100034662_reduced_sp_1568998/"
 Entering Link 1 = /public/software/gauss/g16/l1.exe PID=   3949183.
  
 Copyright (c) 1988,1990,1992,1993,1995,1998,2003,2009,2016,
            Gaussian, Inc.  All Rights Reserved.
  
 This is part of the Gaussian(R) 16 program.  It is based on
 the Gaussian(R) 09 system (copyright 2009, Gaussian, Inc.),
 the Gaussian(R) 03 system (copyright 2003, Gaussian, Inc.),
 the Gaussian(R) 98 system (copyright 1998, Gaussian, Inc.),
 the Gaussian(R) 94 system (copyright 1995, Gaussian, Inc.),
 the Gaussian 92(TM) system (copyright 1992, Gaussian, Inc.),
 the Gaussian 90(TM) system (copyright 1990, Gaussian, Inc.),
 the Gaussian 88(TM) system (copyright 1988, Gaussian, Inc.),
 the Gaussian 86(TM) system (copyright 1986, Carnegie Mellon
 University), and the Gaussian 82(TM) system (copyright 1983,
 Carnegie Mellon University). Gaussian is a federally registered
 trademark of Gaussian, Inc.
  
 This software contains proprietary and confidential information,
 including trade secrets, belonging to Gaussian, Inc.
  
 This software is provided under written license and may be
 used, copied, transmitted, or stored only in accord with that
 written license.
  
 The following legend is applicable only to US Government
 contracts under FAR:
  
                    RESTRICTED RIGHTS LEGEND
  
 Use, reproduction and disclosure by the US Government is
 subject to restrictions as set forth in subparagraphs (a)
 and (c) of the Commercial Computer Software - Restricted
 Rights clause in FAR 52.227-19.
  
 Gaussian, Inc.
 340 Quinnipiac St., Bldg. 40, Wallingford CT 06492
  
  
 ---------------------------------------------------------------
 Warning -- This program may not be used in any manner that
 competes with the business of Gaussian, Inc. or will provide
 assistance to any competitor of Gaussian, Inc.  The licensee
 of this program is prohibited from giving any competitor of
 Gaussian, Inc. access to this program.  By using this program,
 the user acknowledges that Gaussian, Inc. is engaged in the
 business of creating and licensing software in the field of
 computational chemistry and represents and warrants to the
 licensee that it is not a competitor of Gaussian, Inc. and that
 it will not use this program in any manner prohibited above.
 ---------------------------------------------------------------
  

 Cite this work as:
 Gaussian 16, Revision A.03,
 M. J. Frisch, G. W. Trucks, H. B. Schlegel, G. E. Scuseria, 
 M. A. Robb, J. R. Cheeseman, G. Scalmani, V. Barone, 
 G. A. Petersson, H. Nakatsuji, X. Li, M. Caricato, A. V. Marenich, 
 J. Bloino, B. G. Janesko, R. Gomperts, B. Mennucci, H. P. Hratchian, 
 J. V. Ortiz, A. F. Izmaylov, J. L. Sonnenberg, D. Williams-Young, 
 F. Ding, F. Lipparini, F. Egidi, J. Goings, B. Peng, A. Petrone, 
 T. Henderson, D. Ranasinghe, V. G. Zakrzewski, J. Gao, N. Rega, 
 G. Zheng, W. Liang, M. Hada, M. Ehara, K. Toyota, R. Fukuda, 
 J. Hasegawa, M. Ishida, T. Nakajima, Y. Honda, O. Kitao, H. Nakai, 
 T. Vreven, K. Throssell, J. A. Montgomery, Jr., J. E. Peralta, 
 F. Ogliaro, M. J. Bearpark, J. J. Heyd, E. N. Brothers, K. N. Kudin, 
 V. N. Staroverov, T. A. Keith, R. Kobayashi, J. Normand, 
 K. Raghavachari, A. P. Rendell, J. C. Burant, S. S. Iyengar, 
 J. Tomasi, M. Cossi, J. M. Millam, M. Klene, C. Adamo, R. Cammi, 
 J. W. Ochterski, R. L. Martin, K. Morokuma, O. Farkas, 
 J. B. Foresman, and D. J. Fox, Gaussian, Inc., Wallingford CT, 2016.
 
 ******************************************
 Gaussian 16:  ES64L-G16RevA.03 25-Dec-2016
                 6-Nov-2025 
 ******************************************
 %nprocshared=64
 Will use up to   64 processors via shared memory.
 %mem=230GB
 %chk=M100034662_reduced_sp.chk
 ----------------------------------------------
 #p M062X/DEF2TZVPP scrf=(solvent=water) em=GD3
 ----------------------------------------------
 1/38=1,172=1/1;
 2/12=2,17=6,18=5,40=1/2;
 3/5=44,7=202,11=2,25=1,30=1,70=2201,72=1,74=-55,124=31/1,2,3;
 4//1;
 5/5=2,38=5,53=1/2;
 6/7=2,8=2,9=2,10=2,28=1/1;
 99/5=1,9=1/99;
 Leave Link    1 at Thu Nov  6 06:56:34 2025, MaxMem= 30870077440 cpu:              10.7 elap:               0.2
 (Enter /public/software/gauss/g16/l101.exe)
 --------------------------------------------
 Energy calculation for M100034662_reduced_sp
 --------------------------------------------
 Symbolic Z-matrix:
 Charge = -1 Multiplicity = 2
 C                     3.15878   0.05269   4.45014 
 C                     3.75796   0.22328   3.04265 
 C                     2.7162    0.22532   1.95403 
 C                     2.00453   1.34724   1.49126 
 C                     2.19522   2.7367    2.02865 
 C                     1.04672   0.87532   0.5427 
 C                     0.07513   1.55447  -0.24923 
 C                    -0.88675   0.80029  -0.98384 
 C                    -1.86073   1.18143  -1.95463 
 C                    -2.05608   2.5134   -2.62024 
 C                    -2.55952   0.01427  -2.32208 
 C                    -3.63148  -0.08132  -3.37711 
 C                    -4.9377    0.66222  -3.04996 
 C                    -1.97138  -1.06432  -1.62496 
 C                    -2.17801  -2.50335  -1.79555 
 C                    -3.31869  -3.22967  -1.74514 
 C                    -4.66681  -2.86697  -1.29801 
 C                    -4.93599  -1.82394  -0.38863 
 C                    -6.22454  -1.5619    0.05721 
 C                    -7.31881  -2.32534  -0.39928 
 C                    -7.05993  -3.38039  -1.29522 
 C                    -5.76285  -3.64822  -1.71495 
 N                    -8.62799  -2.04513   0.03938 
 C                    -9.01708  -0.70809   0.35373 
 C                    -9.71475  -0.42777   1.53392 
 C                    -10.12615   0.87153   1.83939 
 C                    -9.82031   1.91925   0.96386 
 O                    -10.167    3.23272   1.16806 
 C                    -10.885    3.55555   2.36144 
 C                    -9.11407   1.64932  -0.21783 
 C                    -8.72763   0.35103  -0.52401 
 C                    -9.59486  -3.08732   0.16638 
 C                    -10.8853  -2.92976  -0.35159 
 C                    -11.85035  -3.92874  -0.20496 
 C                    -11.52119  -5.11939   0.45208 
 O                    -12.38693  -6.16848   0.64552 
 C                    -13.71805  -6.03644   0.14067 
 C                    -10.22728  -5.2905    0.96638 
 C                    -9.28038  -4.28322   0.83477 
 N                    -0.94849  -0.58508  -0.84453 
 B                     0.11619  -1.46009  -0.15538 
 F                     0.75907  -2.28895  -1.10131 
 F                    -0.48967  -2.2881    0.81491 
 N                     1.13794  -0.5151    0.5069 
 C                     2.1656   -0.91395   1.32634 
 C                     2.43991  -2.33175   1.55297 
 C                     3.61401  -3.00978   1.57199 
 C                     4.97809  -2.61947   1.21041 
 C                     6.04439  -3.45969   1.59186 
 C                     7.36361  -3.17598   1.26248 
 C                     7.68177  -2.03516   0.50067 
 C                     6.62149  -1.20194   0.08665 
 C                     5.30976  -1.48578   0.43825 
 N                     9.01346  -1.73762   0.15297 
 C                     9.97308  -2.77828  -0.03278 
 C                     11.24022  -2.69094   0.5679 
 C                     12.18899  -3.68562   0.36837 
 C                     11.88737  -4.8037   -0.42279 
 O                     12.88836  -5.7356   -0.55147 
 C                     12.63124  -6.8827   -1.36533 
 C                     10.62559  -4.90684  -1.01958 
 C                     9.68543  -3.89177  -0.8309 
 C                     9.43738  -0.38555  -0.0225 
 C                     9.13672   0.59435   0.9309 
 C                     9.55181   1.91699   0.7625 
 C                     10.30247   2.27017  -0.36474 
 O                     10.76935   3.53551  -0.62542 
 C                     10.46969   4.56587   0.3196 
 C                     10.6212   1.29181  -1.31788 
 C                     10.18609  -0.01684  -1.15275 
 C                     0.06627   3.01703  -0.31162 
 C                    -1.09668   3.76153   0.00968 
 C                    -1.11242   5.14083  -0.02902 
 C                     0.03819   5.88075  -0.4357 
 C                     0.12554   7.29715  -0.53473 
 C                    -0.79535   8.31265  -0.25325 
 C                    -2.10676   8.10361   0.24536 
 N                    -3.19333   7.95861   0.65723 
 C                    -0.47332   9.7231   -0.44577 
 O                     0.77525   9.9488   -0.93607 
 O                    -1.24092   10.65679  -0.19858 
 C                     1.19921   5.12231  -0.77495 
 C                     1.21907   3.74628  -0.6976 
 H                     3.94535   0.06045   5.21286 
 H                     2.4537    0.85714   4.68466 
 H                     2.61981  -0.89724   4.53109 
 H                     4.32796   1.15837   3.00543 
 H                     4.47976  -0.57789   2.86779 
 H                     2.85776   3.35084   1.40768 
 H                     1.24667   3.27381   2.1052 
 H                     2.63601   2.69511   3.02828 
 H                    -1.113     3.05586  -2.72002 
 H                    -2.46616   2.36818  -3.62445 
 H                    -2.74694   3.17236  -2.08191 
 H                    -3.2368    0.31876  -4.32171 
 H                    -3.85314  -1.13597  -3.5649 
 H                    -5.66385   0.53244  -3.86011 
 H                    -5.39078   0.28708  -2.12805 
 H                    -4.76874   1.73619  -2.92607 
 H                    -1.26637  -3.05563  -2.01446 
 H                    -3.22231  -4.27414  -2.04017 
 H                    -4.11719  -1.22964   0.00234 
 H                    -6.38895  -0.76728   0.77668 
 H                    -7.87859  -3.9901   -1.66107 
 H                    -5.59266  -4.47315  -2.40198 
 H                    -9.94527  -1.23318   2.22373 
 H                    -10.66703   1.05173   2.76042 
 H                    -11.05883   4.63174   2.32316 
 H                    -11.84764   3.03375   2.40228 
 H                    -10.30154   3.31375   3.25675 
 H                    -8.88999   2.46766  -0.89477 
 H                    -8.19672   0.15369  -1.44975 
 H                    -11.1454  -2.01388  -0.87232 
 H                    -12.84035  -3.77087  -0.61523 
 H                    -14.2389  -5.19112   0.60405 
 H                    -13.72231  -5.9142   -0.94814 
 H                    -14.2298  -6.96366   0.402 
 H                    -9.98472  -6.21393   1.4828 
 H                    -8.28835  -4.42142   1.25216 
 H                     1.5471   -2.92779   1.7283 
 H                     3.53402  -4.05515   1.86834 
 H                     5.82996  -4.35017   2.17727 
 H                     8.15385  -3.83914   1.5962 
 H                     6.8321   -0.33238  -0.52603 
 H                     4.52356  -0.82836   0.0841 
 H                     11.48125  -1.83591   1.19104 
 H                     13.16875  -3.617     0.83042 
 H                     11.79721  -7.4738   -0.97099 
 H                     12.41758  -6.59743  -2.40139 
 H                     13.54336  -7.48017  -1.33557 
 H                     10.36883  -5.75594  -1.6412 
 H                     8.71554  -3.97209  -1.31092 
 H                     8.56851   0.32594   1.81562 
 H                     9.29882   2.64982   1.51891 
 H                     10.92124   5.47566  -0.07815 
 H                     9.38861   4.71171   0.42211 
 H                     10.90225   4.3453    1.30181 
 H                     11.20008   1.57683  -2.1907 
 H                     10.42775  -0.76226  -1.90335 
 H                    -1.98795   3.22893   0.32638 
 H                    -2.01802   5.65878   0.2605 
 H                     1.08348   7.66228  -0.89191 
 H                     0.87425   10.91319  -1.01853 
 H                     2.08719   5.65273  -1.1085 
 H                     2.11957   3.20508  -0.96987 
 
 ITRead=  0  0  0  0  0  0  0  0  0  0  0  0  0  0  0  0  0  0  0  0
 ITRead=  0  0  0  0  0  0  0  0  0  0  0  0  0  0  0  0  0  0  0  0
 ITRead=  0  0  0  0  0  0  0  0  0  0  0  0  0  0  0  0  0  0  0  0
 ITRead=  0  0  0  0  0  0  0  0  0  0  0  0  0  0  0  0  0  0  0  0
 ITRead=  0  0  0  0  0  0  0  0  0  0  0  0  0  0  0  0  0  0  0  0
 ITRead=  0  0  0  0  0  0  0  0  0  0  0  0  0  0  0  0  0  0  0  0
 ITRead=  0  0  0  0  0  0  0  0  0  0  0  0  0  0  0  0  0  0  0  0
 ITRead=  0  0  0  0  0
 MicOpt= -1 -1 -1 -1 -1 -1 -1 -1 -1 -1 -1 -1 -1 -1 -1 -1 -1 -1 -1 -1
 MicOpt= -1 -1 -1 -1 -1 -1 -1 -1 -1 -1 -1 -1 -1 -1 -1 -1 -1 -1 -1 -1
 MicOpt= -1 -1 -1 -1 -1 -1 -1 -1 -1 -1 -1 -1 -1 -1 -1 -1 -1 -1 -1 -1
 MicOpt= -1 -1 -1 -1 -1 -1 -1 -1 -1 -1 -1 -1 -1 -1 -1 -1 -1 -1 -1 -1
 MicOpt= -1 -1 -1 -1 -1 -1 -1 -1 -1 -1 -1 -1 -1 -1 -1 -1 -1 -1 -1 -1
 MicOpt= -1 -1 -1 -1 -1 -1 -1 -1 -1 -1 -1 -1 -1 -1 -1 -1 -1 -1 -1 -1
 MicOpt= -1 -1 -1 -1 -1 -1 -1 -1 -1 -1 -1 -1 -1 -1 -1 -1 -1 -1 -1 -1
 MicOpt= -1 -1 -1 -1 -1
 NAtoms=    145 NQM=      145 NQMF=       0 NMMI=      0 NMMIF=      0
                NMic=       0 NMicF=      0.
                    Isotopes and Nuclear Properties:
 (Nuclear quadrupole moments (NQMom) in fm**2, nuclear magnetic moments (NMagM)
  in nuclear magnetons)

  Atom         1           2           3           4           5           6           7           8           9          10
 IAtWgt=          12          12          12          12          12          12          12          12          12          12
 AtmWgt=  12.0000000  12.0000000  12.0000000  12.0000000  12.0000000  12.0000000  12.0000000  12.0000000  12.0000000  12.0000000
 NucSpn=           0           0           0           0           0           0           0           0           0           0
 AtZEff=  -0.0000000  -0.0000000  -0.0000000  -0.0000000  -0.0000000  -0.0000000  -0.0000000  -0.0000000  -0.0000000  -0.0000000
 NQMom=    0.0000000   0.0000000   0.0000000   0.0000000   0.0000000   0.0000000   0.0000000   0.0000000   0.0000000   0.0000000
 NMagM=    0.0000000   0.0000000   0.0000000   0.0000000   0.0000000   0.0000000   0.0000000   0.0000000   0.0000000   0.0000000
 AtZNuc=   6.0000000   6.0000000   6.0000000   6.0000000   6.0000000   6.0000000   6.0000000   6.0000000   6.0000000   6.0000000

  Atom        11          12          13          14          15          16          17          18          19          20
 IAtWgt=          12          12          12          12          12          12          12          12          12          12
 AtmWgt=  12.0000000  12.0000000  12.0000000  12.0000000  12.0000000  12.0000000  12.0000000  12.0000000  12.0000000  12.0000000
 NucSpn=           0           0           0           0           0           0           0           0           0           0
 AtZEff=  -0.0000000  -0.0000000  -0.0000000  -0.0000000  -0.0000000  -0.0000000  -0.0000000  -0.0000000  -0.0000000  -0.0000000
 NQMom=    0.0000000   0.0000000   0.0000000   0.0000000   0.0000000   0.0000000   0.0000000   0.0000000   0.0000000   0.0000000
 NMagM=    0.0000000   0.0000000   0.0000000   0.0000000   0.0000000   0.0000000   0.0000000   0.0000000   0.0000000   0.0000000
 AtZNuc=   6.0000000   6.0000000   6.0000000   6.0000000   6.0000000   6.0000000   6.0000000   6.0000000   6.0000000   6.0000000

  Atom        21          22          23          24          25          26          27          28          29          30
 IAtWgt=          12          12          14          12          12          12          12          16          12          12
 AtmWgt=  12.0000000  12.0000000  14.0030740  12.0000000  12.0000000  12.0000000  12.0000000  15.9949146  12.0000000  12.0000000
 NucSpn=           0           0           2           0           0           0           0           0           0           0
 AtZEff=  -0.0000000  -0.0000000  -0.0000000  -0.0000000  -0.0000000  -0.0000000  -0.0000000  -0.0000000  -0.0000000  -0.0000000
 NQMom=    0.0000000   0.0000000   2.0440000   0.0000000   0.0000000   0.0000000   0.0000000   0.0000000   0.0000000   0.0000000
 NMagM=    0.0000000   0.0000000   0.4037610   0.0000000   0.0000000   0.0000000   0.0000000   0.0000000   0.0000000   0.0000000
 AtZNuc=   6.0000000   6.0000000   7.0000000   6.0000000   6.0000000   6.0000000   6.0000000   8.0000000   6.0000000   6.0000000

  Atom        31          32          33          34          35          36          37          38          39          40
 IAtWgt=          12          12          12          12          12          16          12          12          12          14
 AtmWgt=  12.0000000  12.0000000  12.0000000  12.0000000  12.0000000  15.9949146  12.0000000  12.0000000  12.0000000  14.0030740
 NucSpn=           0           0           0           0           0           0           0           0           0           2
 AtZEff=  -0.0000000  -0.0000000  -0.0000000  -0.0000000  -0.0000000  -0.0000000  -0.0000000  -0.0000000  -0.0000000  -0.0000000
 NQMom=    0.0000000   0.0000000   0.0000000   0.0000000   0.0000000   0.0000000   0.0000000   0.0000000   0.0000000   2.0440000
 NMagM=    0.0000000   0.0000000   0.0000000   0.0000000   0.0000000   0.0000000   0.0000000   0.0000000   0.0000000   0.4037610
 AtZNuc=   6.0000000   6.0000000   6.0000000   6.0000000   6.0000000   8.0000000   6.0000000   6.0000000   6.0000000   7.0000000

  Atom        41          42          43          44          45          46          47          48          49          50
 IAtWgt=          11          19          19          14          12          12          12          12          12          12
 AtmWgt=  11.0093053  18.9984033  18.9984033  14.0030740  12.0000000  12.0000000  12.0000000  12.0000000  12.0000000  12.0000000
 NucSpn=           3           1           1           2           0           0           0           0           0           0
 AtZEff=  -0.0000000  -0.0000000  -0.0000000  -0.0000000  -0.0000000  -0.0000000  -0.0000000  -0.0000000  -0.0000000  -0.0000000
 NQMom=    4.0590000   0.0000000   0.0000000   2.0440000   0.0000000   0.0000000   0.0000000   0.0000000   0.0000000   0.0000000
 NMagM=    2.6886370   2.6288670   2.6288670   0.4037610   0.0000000   0.0000000   0.0000000   0.0000000   0.0000000   0.0000000
 AtZNuc=   5.0000000   9.0000000   9.0000000   7.0000000   6.0000000   6.0000000   6.0000000   6.0000000   6.0000000   6.0000000

  Atom        51          52          53          54          55          56          57          58          59          60
 IAtWgt=          12          12          12          14          12          12          12          12          16          12
 AtmWgt=  12.0000000  12.0000000  12.0000000  14.0030740  12.0000000  12.0000000  12.0000000  12.0000000  15.9949146  12.0000000
 NucSpn=           0           0           0           2           0           0           0           0           0           0
 AtZEff=  -0.0000000  -0.0000000  -0.0000000  -0.0000000  -0.0000000  -0.0000000  -0.0000000  -0.0000000  -0.0000000  -0.0000000
 NQMom=    0.0000000   0.0000000   0.0000000   2.0440000   0.0000000   0.0000000   0.0000000   0.0000000   0.0000000   0.0000000
 NMagM=    0.0000000   0.0000000   0.0000000   0.4037610   0.0000000   0.0000000   0.0000000   0.0000000   0.0000000   0.0000000
 AtZNuc=   6.0000000   6.0000000   6.0000000   7.0000000   6.0000000   6.0000000   6.0000000   6.0000000   8.0000000   6.0000000

  Atom        61          62          63          64          65          66          67          68          69          70
 IAtWgt=          12          12          12          12          12          12          16          12          12          12
 AtmWgt=  12.0000000  12.0000000  12.0000000  12.0000000  12.0000000  12.0000000  15.9949146  12.0000000  12.0000000  12.0000000
 NucSpn=           0           0           0           0           0           0           0           0           0           0
 AtZEff=  -0.0000000  -0.0000000  -0.0000000  -0.0000000  -0.0000000  -0.0000000  -0.0000000  -0.0000000  -0.0000000  -0.0000000
 NQMom=    0.0000000   0.0000000   0.0000000   0.0000000   0.0000000   0.0000000   0.0000000   0.0000000   0.0000000   0.0000000
 NMagM=    0.0000000   0.0000000   0.0000000   0.0000000   0.0000000   0.0000000   0.0000000   0.0000000   0.0000000   0.0000000
 AtZNuc=   6.0000000   6.0000000   6.0000000   6.0000000   6.0000000   6.0000000   8.0000000   6.0000000   6.0000000   6.0000000

  Atom        71          72          73          74          75          76          77          78          79          80
 IAtWgt=          12          12          12          12          12          12          12          14          12          16
 AtmWgt=  12.0000000  12.0000000  12.0000000  12.0000000  12.0000000  12.0000000  12.0000000  14.0030740  12.0000000  15.9949146
 NucSpn=           0           0           0           0           0           0           0           2           0           0
 AtZEff=  -0.0000000  -0.0000000  -0.0000000  -0.0000000  -0.0000000  -0.0000000  -0.0000000  -0.0000000  -0.0000000  -0.0000000
 NQMom=    0.0000000   0.0000000   0.0000000   0.0000000   0.0000000   0.0000000   0.0000000   2.0440000   0.0000000   0.0000000
 NMagM=    0.0000000   0.0000000   0.0000000   0.0000000   0.0000000   0.0000000   0.0000000   0.4037610   0.0000000   0.0000000
 AtZNuc=   6.0000000   6.0000000   6.0000000   6.0000000   6.0000000   6.0000000   6.0000000   7.0000000   6.0000000   8.0000000

  Atom        81          82          83          84          85          86          87          88          89          90
 IAtWgt=          16          12          12           1           1           1           1           1           1           1
 AtmWgt=  15.9949146  12.0000000  12.0000000   1.0078250   1.0078250   1.0078250   1.0078250   1.0078250   1.0078250   1.0078250
 NucSpn=           0           0           0           1           1           1           1           1           1           1
 AtZEff=  -0.0000000  -0.0000000  -0.0000000  -0.0000000  -0.0000000  -0.0000000  -0.0000000  -0.0000000  -0.0000000  -0.0000000
 NQMom=    0.0000000   0.0000000   0.0000000   0.0000000   0.0000000   0.0000000   0.0000000   0.0000000   0.0000000   0.0000000
 NMagM=    0.0000000   0.0000000   0.0000000   2.7928460   2.7928460   2.7928460   2.7928460   2.7928460   2.7928460   2.7928460
 AtZNuc=   8.0000000   6.0000000   6.0000000   1.0000000   1.0000000   1.0000000   1.0000000   1.0000000   1.0000000   1.0000000

  Atom        91          92          93          94          95          96          97          98          99         100
 IAtWgt=           1           1           1           1           1           1           1           1           1           1
 AtmWgt=   1.0078250   1.0078250   1.0078250   1.0078250   1.0078250   1.0078250   1.0078250   1.0078250   1.0078250   1.0078250
 NucSpn=           1           1           1           1           1           1           1           1           1           1
 AtZEff=  -0.0000000  -0.0000000  -0.0000000  -0.0000000  -0.0000000  -0.0000000  -0.0000000  -0.0000000  -0.0000000  -0.0000000
 NQMom=    0.0000000   0.0000000   0.0000000   0.0000000   0.0000000   0.0000000   0.0000000   0.0000000   0.0000000   0.0000000
 NMagM=    2.7928460   2.7928460   2.7928460   2.7928460   2.7928460   2.7928460   2.7928460   2.7928460   2.7928460   2.7928460
 AtZNuc=   1.0000000   1.0000000   1.0000000   1.0000000   1.0000000   1.0000000   1.0000000   1.0000000   1.0000000   1.0000000

  Atom       101         102         103         104         105         106         107         108         109         110
 IAtWgt=           1           1           1           1           1           1           1           1           1           1
 AtmWgt=   1.0078250   1.0078250   1.0078250   1.0078250   1.0078250   1.0078250   1.0078250   1.0078250   1.0078250   1.0078250
 NucSpn=           1           1           1           1           1           1           1           1           1           1
 AtZEff=  -0.0000000  -0.0000000  -0.0000000  -0.0000000  -0.0000000  -0.0000000  -0.0000000  -0.0000000  -0.0000000  -0.0000000
 NQMom=    0.0000000   0.0000000   0.0000000   0.0000000   0.0000000   0.0000000   0.0000000   0.0000000   0.0000000   0.0000000
 NMagM=    2.7928460   2.7928460   2.7928460   2.7928460   2.7928460   2.7928460   2.7928460   2.7928460   2.7928460   2.7928460
 AtZNuc=   1.0000000   1.0000000   1.0000000   1.0000000   1.0000000   1.0000000   1.0000000   1.0000000   1.0000000   1.0000000

  Atom       111         112         113         114         115         116         117         118         119         120
 IAtWgt=           1           1           1           1           1           1           1           1           1           1
 AtmWgt=   1.0078250   1.0078250   1.0078250   1.0078250   1.0078250   1.0078250   1.0078250   1.0078250   1.0078250   1.0078250
 NucSpn=           1           1           1           1           1           1           1           1           1           1
 AtZEff=  -0.0000000  -0.0000000  -0.0000000  -0.0000000  -0.0000000  -0.0000000  -0.0000000  -0.0000000  -0.0000000  -0.0000000
 NQMom=    0.0000000   0.0000000   0.0000000   0.0000000   0.0000000   0.0000000   0.0000000   0.0000000   0.0000000   0.0000000
 NMagM=    2.7928460   2.7928460   2.7928460   2.7928460   2.7928460   2.7928460   2.7928460   2.7928460   2.7928460   2.7928460
 AtZNuc=   1.0000000   1.0000000   1.0000000   1.0000000   1.0000000   1.0000000   1.0000000   1.0000000   1.0000000   1.0000000

  Atom       121         122         123         124         125         126         127         128         129         130
 IAtWgt=           1           1           1           1           1           1           1           1           1           1
 AtmWgt=   1.0078250   1.0078250   1.0078250   1.0078250   1.0078250   1.0078250   1.0078250   1.0078250   1.0078250   1.0078250
 NucSpn=           1           1           1           1           1           1           1           1           1           1
 AtZEff=  -0.0000000  -0.0000000  -0.0000000  -0.0000000  -0.0000000  -0.0000000  -0.0000000  -0.0000000  -0.0000000  -0.0000000
 NQMom=    0.0000000   0.0000000   0.0000000   0.0000000   0.0000000   0.0000000   0.0000000   0.0000000   0.0000000   0.0000000
 NMagM=    2.7928460   2.7928460   2.7928460   2.7928460   2.7928460   2.7928460   2.7928460   2.7928460   2.7928460   2.7928460
 AtZNuc=   1.0000000   1.0000000   1.0000000   1.0000000   1.0000000   1.0000000   1.0000000   1.0000000   1.0000000   1.0000000

  Atom       131         132         133         134         135         136         137         138         139         140
 IAtWgt=           1           1           1           1           1           1           1           1           1           1
 AtmWgt=   1.0078250   1.0078250   1.0078250   1.0078250   1.0078250   1.0078250   1.0078250   1.0078250   1.0078250   1.0078250
 NucSpn=           1           1           1           1           1           1           1           1           1           1
 AtZEff=  -0.0000000  -0.0000000  -0.0000000  -0.0000000  -0.0000000  -0.0000000  -0.0000000  -0.0000000  -0.0000000  -0.0000000
 NQMom=    0.0000000   0.0000000   0.0000000   0.0000000   0.0000000   0.0000000   0.0000000   0.0000000   0.0000000   0.0000000
 NMagM=    2.7928460   2.7928460   2.7928460   2.7928460   2.7928460   2.7928460   2.7928460   2.7928460   2.7928460   2.7928460
 AtZNuc=   1.0000000   1.0000000   1.0000000   1.0000000   1.0000000   1.0000000   1.0000000   1.0000000   1.0000000   1.0000000

  Atom       141         142         143         144         145
 IAtWgt=           1           1           1           1           1
 AtmWgt=   1.0078250   1.0078250   1.0078250   1.0078250   1.0078250
 NucSpn=           1           1           1           1           1
 AtZEff=  -0.0000000  -0.0000000  -0.0000000  -0.0000000  -0.0000000
 NQMom=    0.0000000   0.0000000   0.0000000   0.0000000   0.0000000
 NMagM=    2.7928460   2.7928460   2.7928460   2.7928460   2.7928460
 AtZNuc=   1.0000000   1.0000000   1.0000000   1.0000000   1.0000000
 Leave Link  101 at Thu Nov  6 06:56:34 2025, MaxMem= 30870077440 cpu:               4.9 elap:               0.1
 (Enter /public/software/gauss/g16/l202.exe)
 Stoichiometry    C69H62BF2N5O6(1-,2)
 Framework group  C1[X(C69H62BF2N5O6)]
 Deg. of freedom   429
 Full point group                 C1      NOp   1
 Largest Abelian subgroup         C1      NOp   1
 Largest concise Abelian subgroup C1      NOp   1
                         Standard orientation:                         
 ---------------------------------------------------------------------
 Center     Atomic      Atomic             Coordinates (Angstroms)
 Number     Number       Type             X           Y           Z
 ---------------------------------------------------------------------
      1          6           0        3.158778    0.052686    4.450142
      2          6           0        3.757956    0.223284    3.042651
      3          6           0        2.716195    0.225318    1.954032
      4          6           0        2.004525    1.347237    1.491262
      5          6           0        2.195222    2.736698    2.028645
      6          6           0        1.046720    0.875317    0.542697
      7          6           0        0.075126    1.554470   -0.249232
      8          6           0       -0.886751    0.800286   -0.983840
      9          6           0       -1.860732    1.181434   -1.954625
     10          6           0       -2.056077    2.513403   -2.620235
     11          6           0       -2.559520    0.014272   -2.322079
     12          6           0       -3.631484   -0.081317   -3.377108
     13          6           0       -4.937697    0.662219   -3.049963
     14          6           0       -1.971383   -1.064321   -1.624962
     15          6           0       -2.178007   -2.503353   -1.795553
     16          6           0       -3.318695   -3.229672   -1.745139
     17          6           0       -4.666810   -2.866967   -1.298010
     18          6           0       -4.935992   -1.823935   -0.388631
     19          6           0       -6.224538   -1.561898    0.057206
     20          6           0       -7.318806   -2.325337   -0.399279
     21          6           0       -7.059930   -3.380386   -1.295220
     22          6           0       -5.762849   -3.648219   -1.714948
     23          7           0       -8.627992   -2.045129    0.039378
     24          6           0       -9.017077   -0.708085    0.353732
     25          6           0       -9.714751   -0.427766    1.533917
     26          6           0      -10.126146    0.871527    1.839391
     27          6           0       -9.820311    1.919250    0.963858
     28          8           0      -10.166999    3.232719    1.168057
     29          6           0      -10.885004    3.555551    2.361438
     30          6           0       -9.114074    1.649316   -0.217831
     31          6           0       -8.727629    0.351028   -0.524012
     32          6           0       -9.594862   -3.087315    0.166382
     33          6           0      -10.885297   -2.929762   -0.351590
     34          6           0      -11.850350   -3.928740   -0.204960
     35          6           0      -11.521189   -5.119390    0.452080
     36          8           0      -12.386931   -6.168484    0.645517
     37          6           0      -13.718047   -6.036440    0.140665
     38          6           0      -10.227284   -5.290502    0.966376
     39          6           0       -9.280376   -4.283220    0.834768
     40          7           0       -0.948489   -0.585084   -0.844530
     41          5           0        0.116194   -1.460094   -0.155375
     42          9           0        0.759071   -2.288945   -1.101306
     43          9           0       -0.489669   -2.288102    0.814914
     44          7           0        1.137940   -0.515095    0.506899
     45          6           0        2.165603   -0.913945    1.326339
     46          6           0        2.439905   -2.331746    1.552971
     47          6           0        3.614009   -3.009783    1.571989
     48          6           0        4.978091   -2.619473    1.210405
     49          6           0        6.044389   -3.459686    1.591857
     50          6           0        7.363610   -3.175979    1.262480
     51          6           0        7.681765   -2.035161    0.500667
     52          6           0        6.621493   -1.201937    0.086648
     53          6           0        5.309755   -1.485779    0.438251
     54          7           0        9.013456   -1.737623    0.152973
     55          6           0        9.973082   -2.778283   -0.032783
     56          6           0       11.240218   -2.690942    0.567896
     57          6           0       12.188987   -3.685620    0.368365
     58          6           0       11.887373   -4.803700   -0.422794
     59          8           0       12.888356   -5.735599   -0.551467
     60          6           0       12.631235   -6.882704   -1.365330
     61          6           0       10.625593   -4.906838   -1.019582
     62          6           0        9.685425   -3.891774   -0.830896
     63          6           0        9.437382   -0.385552   -0.022502
     64          6           0        9.136722    0.594348    0.930900
     65          6           0        9.551813    1.916988    0.762501
     66          6           0       10.302467    2.270169   -0.364736
     67          8           0       10.769350    3.535511   -0.625420
     68          6           0       10.469694    4.565872    0.319597
     69          6           0       10.621200    1.291806   -1.317878
     70          6           0       10.186088   -0.016838   -1.152746
     71          6           0        0.066272    3.017027   -0.311619
     72          6           0       -1.096683    3.761526    0.009684
     73          6           0       -1.112417    5.140827   -0.029021
     74          6           0        0.038186    5.880750   -0.435696
     75          6           0        0.125541    7.297149   -0.534734
     76          6           0       -0.795349    8.312647   -0.253252
     77          6           0       -2.106760    8.103606    0.245359
     78          7           0       -3.193333    7.958613    0.657234
     79          6           0       -0.473322    9.723095   -0.445765
     80          8           0        0.775246    9.948798   -0.936070
     81          8           0       -1.240923   10.656789   -0.198578
     82          6           0        1.199206    5.122307   -0.774953
     83          6           0        1.219069    3.746278   -0.697601
     84          1           0        3.945346    0.060451    5.212862
     85          1           0        2.453696    0.857143    4.684661
     86          1           0        2.619812   -0.897242    4.531086
     87          1           0        4.327959    1.158371    3.005430
     88          1           0        4.479764   -0.577891    2.867785
     89          1           0        2.857759    3.350837    1.407677
     90          1           0        1.246665    3.273806    2.105204
     91          1           0        2.636009    2.695108    3.028284
     92          1           0       -1.113002    3.055855   -2.720020
     93          1           0       -2.466156    2.368175   -3.624447
     94          1           0       -2.746939    3.172361   -2.081906
     95          1           0       -3.236799    0.318755   -4.321705
     96          1           0       -3.853141   -1.135965   -3.564902
     97          1           0       -5.663845    0.532439   -3.860109
     98          1           0       -5.390777    0.287078   -2.128049
     99          1           0       -4.768739    1.736191   -2.926069
    100          1           0       -1.266370   -3.055629   -2.014459
    101          1           0       -3.222313   -4.274135   -2.040171
    102          1           0       -4.117188   -1.229643    0.002344
    103          1           0       -6.388951   -0.767283    0.776679
    104          1           0       -7.878587   -3.990097   -1.661067
    105          1           0       -5.592656   -4.473145   -2.401981
    106          1           0       -9.945270   -1.233181    2.223734
    107          1           0      -10.667030    1.051732    2.760418
    108          1           0      -11.058832    4.631735    2.323160
    109          1           0      -11.847636    3.033753    2.402275
    110          1           0      -10.301542    3.313753    3.256748
    111          1           0       -8.889988    2.467657   -0.894770
    112          1           0       -8.196719    0.153690   -1.449749
    113          1           0      -11.145398   -2.013881   -0.872322
    114          1           0      -12.840349   -3.770867   -0.615230
    115          1           0      -14.238897   -5.191123    0.604046
    116          1           0      -13.722306   -5.914201   -0.948141
    117          1           0      -14.229800   -6.963657    0.402003
    118          1           0       -9.984721   -6.213929    1.482796
    119          1           0       -8.288352   -4.421421    1.252160
    120          1           0        1.547099   -2.927787    1.728299
    121          1           0        3.534019   -4.055149    1.868343
    122          1           0        5.829958   -4.350166    2.177270
    123          1           0        8.153854   -3.839138    1.596200
    124          1           0        6.832104   -0.332384   -0.526030
    125          1           0        4.523563   -0.828362    0.084096
    126          1           0       11.481246   -1.835908    1.191042
    127          1           0       13.168748   -3.616996    0.830422
    128          1           0       11.797206   -7.473802   -0.970988
    129          1           0       12.417576   -6.597426   -2.401385
    130          1           0       13.543358   -7.480165   -1.335571
    131          1           0       10.368828   -5.755940   -1.641201
    132          1           0        8.715538   -3.972088   -1.310920
    133          1           0        8.568514    0.325942    1.815620
    134          1           0        9.298817    2.649821    1.518910
    135          1           0       10.921242    5.475661   -0.078150
    136          1           0        9.388605    4.711707    0.422108
    137          1           0       10.902251    4.345298    1.301806
    138          1           0       11.200084    1.576833   -2.190703
    139          1           0       10.427750   -0.762263   -1.903348
    140          1           0       -1.987950    3.228931    0.326378
    141          1           0       -2.018024    5.658780    0.260503
    142          1           0        1.083478    7.662283   -0.891910
    143          1           0        0.874254   10.913195   -1.018530
    144          1           0        2.087189    5.652729   -1.108496
    145          1           0        2.119566    3.205076   -0.969874
 ---------------------------------------------------------------------
 Rotational constants (GHZ):           0.0257724           0.0082061           0.0065441
 Leave Link  202 at Thu Nov  6 06:56:34 2025, MaxMem= 30870077440 cpu:               0.2 elap:               0.0
 (Enter /public/software/gauss/g16/l301.exe)
 Standard basis: def2TZVPP (5D, 7F)
 Ernie: Thresh=  0.10000D-02 Tol=  0.10000D-05 Strict=F.
 There are  3918 symmetry adapted cartesian basis functions of A   symmetry.
 There are  3441 symmetry adapted basis functions of A   symmetry.
  3441 basis functions,  5287 primitive gaussians,  3918 cartesian basis functions
   292 alpha electrons      291 beta electrons
       nuclear repulsion energy     12458.9896002957 Hartrees.
 IExCor= 4336 DFT=T Ex+Corr=M062X ExCW=0 ScaHFX=  0.540000
 ScaDFX=  1.000000  1.000000  1.000000  1.000000 ScalE2=  1.000000  1.000000
 IRadAn=      5 IRanWt=     -1 IRanGd=            0 ICorTp=0 IEmpDi=131
 NAtoms=  145 NActive=  145 NUniq=  145 SFac= 1.00D+00 NAtFMM=   60 NAOKFM=T Big=T
 Integral buffers will be    131072 words long.
 Raffenetti 2 integral format.
 Two-electron integral symmetry is turned on.
 R6Disp:  Grimme-D3 Dispersion energy=       -0.0146181368 Hartrees.
 Nuclear repulsion after empirical dispersion term =    12458.9749821589 Hartrees.
 ------------------------------------------------------------------------------
 Polarizable Continuum Model (PCM)
 =================================
 Model                : PCM.
 Atomic radii         : UFF (Universal Force Field).
 Polarization charges : Total charges.
 Charge compensation  : None.
 Solution method      : On-the-fly selection.
 Cavity type          : Scaled VdW (van der Waals Surface) (Alpha=1.100).
 Cavity algorithm     : GePol (No added spheres)
                        Default sphere list used, NSphG=  145.
                        Lebedev-Laikov grids with approx.  5.0 points / Ang**2.
                        Smoothing algorithm: York/Karplus (Gamma=1.0000).
                        Polarization charges: spherical gaussians, with
                                              point-specific exponents (IZeta= 3).
                        Self-potential: point-specific (ISelfS= 7).
                        Self-field    : sphere-specific E.n sum rule (ISelfD= 2).
 Solvent              : Water, Eps=  78.355300 Eps(inf)=   1.777849
 ------------------------------------------------------------------------------
 GePol: Number of generator spheres                  =     145
 GePol: Total number of spheres                      =     145
 GePol: Number of exposed spheres                    =     145 (100.00%)
 GePol: Number of points                             =    9951
 GePol: Average weight of points                     =       0.13
 GePol: Minimum weight of points                     =   0.21D-11
 GePol: Maximum weight of points                     =    0.20577
 GePol: Number of points with low weight             =     689
 GePol: Fraction of low-weight points (<1% of avg)   =       6.92%
 GePol: Cavity surface area                          =   1268.428 Ang**2
 GePol: Cavity volume                                =   1499.762 Ang**3
 Leave Link  301 at Thu Nov  6 06:56:34 2025, MaxMem= 30870077440 cpu:               4.7 elap:               0.1
 (Enter /public/software/gauss/g16/l302.exe)
 NPDir=0 NMtPBC=     1 NCelOv=     1 NCel=       1 NClECP=     1 NCelD=      1
         NCelK=      1 NCelE2=     1 NClLst=     1 CellRange=     0.0.
 One-electron integrals computed using PRISM.
 One-electron integral symmetry used in STVInt
   1 Symmetry operations used in ECPInt.
 ECPInt:  NShTT=  826255 NPrTT= 2327258 LenC2=  364053 LenP2D=  666388.
 LDataN:  DoStor=T MaxTD1= 6 Len=  172
 Number of processors reduced to  48 by ecpmxn.
 NBasis=  3441 RedAO= T EigKep=  3.60D-06  NBF=  3441
 NBsUse=  3441 1.00D-06 EigRej= -1.00D+00 NBFU=  3441
 Precomputing XC quadrature grid using
 IXCGrd= 4 IRadAn=           5 IRanWt=          -1 IRanGd=           0 AccXCQ= 0.00D+00.
 Generated NRdTot=       0 NPtTot=           0 NUsed=           0 NTot=          32
 NSgBfM=  2666  2666  2666  2666  2666 MxSgAt=   145 MxSgA2=   145.
 Leave Link  302 at Thu Nov  6 06:57:26 2025, MaxMem= 30870077440 cpu:            3332.5 elap:              52.3
 (Enter /public/software/gauss/g16/l303.exe)
 DipDrv:  MaxL=1.
 Leave Link  303 at Thu Nov  6 06:57:28 2025, MaxMem= 30870077440 cpu:              83.4 elap:               1.4
 (Enter /public/software/gauss/g16/l401.exe)
 ExpMin= 6.06D-02 ExpMax= 3.55D+04 ExpMxC= 1.21D+03 IAcc=3 IRadAn=         5 AccDes= 0.00D+00
 Harris functional with IExCor= 1009 and IRadAn=       5 diagonalized for initial guess.
 HarFok:  IExCor= 1009 AccDes= 0.00D+00 IRadAn=         5 IDoV= 1 UseB2=F ITyADJ=14
 ICtDFT=  3500011 ScaDFX=  1.000000  1.000000  1.000000  1.000000
 FoFCou: FMM=F IPFlag=           0 FMFlag=      100000 FMFlg1=        2001
         NFxFlg=           0 DoJE=T BraDBF=F KetDBF=T FulRan=T
         wScrn=  0.000000 ICntrl=       500 IOpCl=  0 I1Cent=   200000004 NGrid=           0
         NMat0=    1 NMatS0=      1 NMatT0=    0 NMatD0=    1 NMtDS0=    0 NMtDT0=    0
 Petite list used in FoFCou.
 Harris En= -3614.82249866168    
 JPrj=0 DoOrth=F DoCkMO=F.
 Initial guess <Sx>= 0.0000 <Sy>= 0.0000 <Sz>= 0.5000 <S**2>= 0.7500 S= 0.5000
 Leave Link  401 at Thu Nov  6 06:58:07 2025, MaxMem= 30870077440 cpu:            2471.3 elap:              38.8
 (Enter /public/software/gauss/g16/l502.exe)
 Integral symmetry usage will be decided dynamically.
 UHF open shell SCF:
 Using DIIS extrapolation, IDIIS=  1040.
 NGot= 30870077440 LenX= 30839092339 LenY= 30823737697
 Requested convergence on RMS density matrix=1.00D-08 within 128 cycles.
 Requested convergence on MAX density matrix=1.00D-06.
 Requested convergence on             energy=1.00D-06.
 No special actions if energy rises.
 Fock matrices will be formed incrementally for  20 cycles.

 Cycle   1  Pass 1  IDiag  1:
 FoFJK:  IHMeth= 1 ICntrl=       0 DoSepK=F KAlg= 0 I1Cent=           0 FoldK=F
 IRaf= 390000000 NMat=       1 IRICut=       1 DoRegI=T DoRafI=F ISym2E= 0 IDoP0=0 IntGTp=1.
 FoFCou: FMM=T IPFlag=           0 FMFlag=      100000 FMFlg1=        2001
         NFxFlg=           0 DoJE=F BraDBF=F KetDBF=F FulRan=T
         wScrn=  0.000000 ICntrl=         0 IOpCl=  1 I1Cent=           0 NGrid=           0
         NMat0=    1 NMatS0=      1 NMatT0=    0 NMatD0=    1 NMtDS0=    0 NMtDT0=    0
 Symmetry not used in FoFCou.
 FMM levels:  10  Number of levels for PrismC:   9
 Inv3:  Mode=1 IEnd=   297067203.
 Iteration    1 A*A^-1 deviation from unit magnitude is 1.20D-14 for   9944.
 Iteration    1 A*A^-1 deviation from orthogonality  is 4.44D-15 for   9951   4261.
 Iteration    1 A^-1*A deviation from unit magnitude is 1.20D-14 for   9944.
 Iteration    1 A^-1*A deviation from orthogonality  is 1.27D-14 for   7395   7320.
 E= -3614.60889662801    
 DIIS: error= 1.63D-02 at cycle   1 NSaved=   1.
 NSaved= 1 IEnMin= 1 EnMin= -3614.60889662801     IErMin= 1 ErrMin= 1.63D-02
 ErrMax= 1.63D-02  0.00D+00 EMaxC= 1.00D-01 BMatC= 9.66D+00 BMatP= 9.66D+00
 IDIUse=3 WtCom= 8.37D-01 WtEn= 1.63D-01
 Coeff-Com:  0.100D+01
 Coeff-En:   0.100D+01
 Coeff:      0.100D+01
 Gap=     0.083 Goal=   None    Shift=    0.000
 Gap=     0.147 Goal=   None    Shift=    0.000
 GapD=    0.083 DampG=0.500 DampE=0.500 DampFc=0.2500 IDamp=-1.
 Damping current iteration by 2.50D-01
 RMSDP=1.20D-03 MaxDP=2.55D-01              OVMax= 1.82D-01

 Cycle   2  Pass 1  IDiag  1:
 RMSU=  3.01D-04    CP:  9.96D-01
 E= -3615.26390296594     Delta-E=       -0.655006337933 Rises=F Damp=T
 DIIS: error= 1.11D-02 at cycle   2 NSaved=   2.
 NSaved= 2 IEnMin= 2 EnMin= -3615.26390296594     IErMin= 2 ErrMin= 1.11D-02
 ErrMax= 1.11D-02  0.00D+00 EMaxC= 1.00D-01 BMatC= 3.64D+00 BMatP= 9.66D+00
 IDIUse=3 WtCom= 8.89D-01 WtEn= 1.11D-01
 Coeff-Com: -0.131D+01 0.231D+01
 Coeff-En:   0.000D+00 0.100D+01
 Coeff:     -0.116D+01 0.216D+01
 Gap=     0.088 Goal=   None    Shift=    0.000
 Gap=     0.134 Goal=   None    Shift=    0.000
 RMSDP=6.60D-04 MaxDP=1.22D-01 DE=-6.55D-01 OVMax= 1.09D-01

 Cycle   3  Pass 1  IDiag  1:
 RMSU=  4.78D-04    CP:  9.79D-01  2.51D+00
 E= -3616.47582138875     Delta-E=       -1.211918422810 Rises=F Damp=F
 DIIS: error= 3.12D-03 at cycle   3 NSaved=   3.
 NSaved= 3 IEnMin= 3 EnMin= -3616.47582138875     IErMin= 3 ErrMin= 3.12D-03
 ErrMax= 3.12D-03  0.00D+00 EMaxC= 1.00D-01 BMatC= 3.37D-01 BMatP= 3.64D+00
 IDIUse=3 WtCom= 9.69D-01 WtEn= 3.12D-02
 Coeff-Com: -0.553D+00 0.909D+00 0.644D+00
 Coeff-En:   0.000D+00 0.000D+00 0.100D+01
 Coeff:     -0.535D+00 0.881D+00 0.655D+00
 Gap=     0.088 Goal=   None    Shift=    0.000
 Gap=     0.135 Goal=   None    Shift=    0.000
 RMSDP=1.40D-04 MaxDP=2.00D-02 DE=-1.21D+00 OVMax= 5.74D-02

 Cycle   4  Pass 1  IDiag  1:
 RMSU=  1.33D-04    CP:  9.78D-01  2.48D+00  9.08D-01
 E= -3616.53102769656     Delta-E=       -0.055206307808 Rises=F Damp=F
 DIIS: error= 1.81D-03 at cycle   4 NSaved=   4.
 NSaved= 4 IEnMin= 4 EnMin= -3616.53102769656     IErMin= 4 ErrMin= 1.81D-03
 ErrMax= 1.81D-03  0.00D+00 EMaxC= 1.00D-01 BMatC= 9.03D-02 BMatP= 3.37D-01
 IDIUse=3 WtCom= 9.82D-01 WtEn= 1.81D-02
 Coeff-Com: -0.113D+00 0.173D+00 0.358D+00 0.582D+00
 Coeff-En:   0.000D+00 0.000D+00 0.217D+00 0.783D+00
 Coeff:     -0.111D+00 0.170D+00 0.356D+00 0.585D+00
 Gap=     0.090 Goal=   None    Shift=    0.000
 Gap=     0.134 Goal=   None    Shift=    0.000
 RMSDP=6.09D-05 MaxDP=1.09D-02 DE=-5.52D-02 OVMax= 1.82D-02

 Cycle   5  Pass 1  IDiag  1:
 RMSU=  5.02D-05    CP:  9.77D-01  2.46D+00  8.99D-01  7.48D-01
 E= -3616.55043131465     Delta-E=       -0.019403618091 Rises=F Damp=F
 DIIS: error= 5.54D-04 at cycle   5 NSaved=   5.
 NSaved= 5 IEnMin= 5 EnMin= -3616.55043131465     IErMin= 5 ErrMin= 5.54D-04
 ErrMax= 5.54D-04  0.00D+00 EMaxC= 1.00D-01 BMatC= 4.22D-03 BMatP= 9.03D-02
 IDIUse=3 WtCom= 9.94D-01 WtEn= 5.54D-03
 Coeff-Com: -0.229D-01 0.324D-01 0.138D+00 0.279D+00 0.573D+00
 Coeff-En:   0.000D+00 0.000D+00 0.000D+00 0.000D+00 0.100D+01
 Coeff:     -0.228D-01 0.323D-01 0.137D+00 0.278D+00 0.576D+00
 Gap=     0.091 Goal=   None    Shift=    0.000
 Gap=     0.134 Goal=   None    Shift=    0.000
 RMSDP=1.90D-05 MaxDP=6.13D-03 DE=-1.94D-02 OVMax= 8.56D-03

 Cycle   6  Pass 1  IDiag  1:
 RMSU=  1.76D-05    CP:  9.77D-01  2.48D+00  8.93D-01  7.54D-01  1.04D+00
 E= -3616.55129607847     Delta-E=       -0.000864763822 Rises=F Damp=F
 DIIS: error= 2.22D-04 at cycle   6 NSaved=   6.
 NSaved= 6 IEnMin= 6 EnMin= -3616.55129607847     IErMin= 6 ErrMin= 2.22D-04
 ErrMax= 2.22D-04  0.00D+00 EMaxC= 1.00D-01 BMatC= 4.59D-04 BMatP= 4.22D-03
 IDIUse=3 WtCom= 9.98D-01 WtEn= 2.22D-03
 Coeff-Com:  0.108D-02-0.248D-02 0.272D-01 0.646D-01 0.273D+00 0.637D+00
 Coeff-En:   0.000D+00 0.000D+00 0.000D+00 0.000D+00 0.000D+00 0.100D+01
 Coeff:      0.108D-02-0.247D-02 0.271D-01 0.645D-01 0.272D+00 0.638D+00
 Gap=     0.091 Goal=   None    Shift=    0.000
 Gap=     0.135 Goal=   None    Shift=    0.000
 RMSDP=7.09D-06 MaxDP=3.39D-03 DE=-8.65D-04 OVMax= 3.03D-03

 Cycle   7  Pass 1  IDiag  1:
 RMSU=  5.98D-06    CP:  9.77D-01  2.48D+00  8.94D-01  7.58D-01  1.12D+00
                    CP:  1.01D+00
 E= -3616.55141555256     Delta-E=       -0.000119474091 Rises=F Damp=F
 DIIS: error= 8.15D-05 at cycle   7 NSaved=   7.
 NSaved= 7 IEnMin= 7 EnMin= -3616.55141555256     IErMin= 7 ErrMin= 8.15D-05
 ErrMax= 8.15D-05  0.00D+00 EMaxC= 1.00D-01 BMatC= 7.57D-05 BMatP= 4.59D-04
 IDIUse=1 WtCom= 1.00D+00 WtEn= 0.00D+00
 Coeff-Com:  0.372D-02-0.564D-02-0.792D-02-0.142D-01 0.366D-01 0.303D+00
 Coeff-Com:  0.684D+00
 Coeff:      0.372D-02-0.564D-02-0.792D-02-0.142D-01 0.366D-01 0.303D+00
 Coeff:      0.684D+00
 Gap=     0.092 Goal=   None    Shift=    0.000
 Gap=     0.135 Goal=   None    Shift=    0.000
 RMSDP=4.30D-06 MaxDP=2.22D-03 DE=-1.19D-04 OVMax= 2.46D-03

 Cycle   8  Pass 1  IDiag  1:
 RMSU=  2.67D-06    CP:  9.77D-01  2.49D+00  8.95D-01  7.61D-01  1.15D+00
                    CP:  1.13D+00  1.30D+00
 E= -3616.55144466122     Delta-E=       -0.000029108660 Rises=F Damp=F
 DIIS: error= 3.48D-05 at cycle   8 NSaved=   8.
 NSaved= 8 IEnMin= 8 EnMin= -3616.55144466122     IErMin= 8 ErrMin= 3.48D-05
 ErrMax= 3.48D-05  0.00D+00 EMaxC= 1.00D-01 BMatC= 1.61D-05 BMatP= 7.57D-05
 IDIUse=1 WtCom= 1.00D+00 WtEn= 0.00D+00
 Coeff-Com:  0.180D-02-0.253D-02-0.107D-01-0.240D-01-0.509D-01-0.679D-02
 Coeff-Com:  0.331D+00 0.762D+00
 Coeff:      0.180D-02-0.253D-02-0.107D-01-0.240D-01-0.509D-01-0.679D-02
 Coeff:      0.331D+00 0.762D+00
 Gap=     0.092 Goal=   None    Shift=    0.000
 Gap=     0.136 Goal=   None    Shift=    0.000
 RMSDP=3.16D-06 MaxDP=1.94D-03 DE=-2.91D-05 OVMax= 1.74D-03

 Cycle   9  Pass 1  IDiag  1:
 RMSU=  1.58D-06    CP:  9.77D-01  2.49D+00  8.96D-01  7.64D-01  1.17D+00
                    CP:  1.21D+00  1.61D+00  1.33D+00
 E= -3616.55145453402     Delta-E=       -0.000009872798 Rises=F Damp=F
 DIIS: error= 1.57D-05 at cycle   9 NSaved=   9.
 NSaved= 9 IEnMin= 9 EnMin= -3616.55145453402     IErMin= 9 ErrMin= 1.57D-05
 ErrMax= 1.57D-05  0.00D+00 EMaxC= 1.00D-01 BMatC= 2.35D-06 BMatP= 1.61D-05
 IDIUse=1 WtCom= 1.00D+00 WtEn= 0.00D+00
 Coeff-Com: -0.103D-03 0.209D-03-0.157D-02-0.459D-02-0.212D-01-0.527D-01
 Coeff-Com: -0.150D-01 0.231D+00 0.864D+00
 Coeff:     -0.103D-03 0.209D-03-0.157D-02-0.459D-02-0.212D-01-0.527D-01
 Coeff:     -0.150D-01 0.231D+00 0.864D+00
 Gap=     0.092 Goal=   None    Shift=    0.000
 Gap=     0.136 Goal=   None    Shift=    0.000
 RMSDP=1.44D-06 MaxDP=5.78D-04 DE=-9.87D-06 OVMax= 1.12D-03

 Cycle  10  Pass 1  IDiag  1:
 RMSU=  6.94D-07    CP:  9.77D-01  2.49D+00  8.96D-01  7.65D-01  1.17D+00
                    CP:  1.24D+00  1.74D+00  1.61D+00  1.25D+00
 E= -3616.55145686687     Delta-E=       -0.000002332852 Rises=F Damp=F
 DIIS: error= 9.14D-06 at cycle  10 NSaved=  10.
 NSaved=10 IEnMin=10 EnMin= -3616.55145686687     IErMin=10 ErrMin= 9.14D-06
 ErrMax= 9.14D-06  0.00D+00 EMaxC= 1.00D-01 BMatC= 9.22D-07 BMatP= 2.35D-06
 IDIUse=1 WtCom= 1.00D+00 WtEn= 0.00D+00
 Coeff-Com: -0.580D-03 0.851D-03 0.215D-02 0.436D-02 0.308D-02-0.259D-01
 Coeff-Com: -0.966D-01-0.100D+00 0.410D+00 0.803D+00
 Coeff:     -0.580D-03 0.851D-03 0.215D-02 0.436D-02 0.308D-02-0.259D-01
 Coeff:     -0.966D-01-0.100D+00 0.410D+00 0.803D+00
 Gap=     0.092 Goal=   None    Shift=    0.000
 Gap=     0.136 Goal=   None    Shift=    0.000
 RMSDP=9.96D-07 MaxDP=6.15D-04 DE=-2.33D-06 OVMax= 8.10D-04

 Cycle  11  Pass 1  IDiag  1:
 RMSU=  3.63D-07    CP:  9.77D-01  2.49D+00  8.97D-01  7.65D-01  1.17D+00
                    CP:  1.25D+00  1.82D+00  1.77D+00  1.53D+00  1.30D+00
 E= -3616.55145772258     Delta-E=       -0.000000855705 Rises=F Damp=F
 DIIS: error= 4.11D-06 at cycle  11 NSaved=  11.
 NSaved=11 IEnMin=11 EnMin= -3616.55145772258     IErMin=11 ErrMin= 4.11D-06
 ErrMax= 4.11D-06  0.00D+00 EMaxC= 1.00D-01 BMatC= 2.25D-07 BMatP= 9.22D-07
 IDIUse=1 WtCom= 1.00D+00 WtEn= 0.00D+00
 Coeff-Com: -0.214D-03 0.304D-03 0.119D-02 0.288D-02 0.574D-02-0.946D-03
 Coeff-Com: -0.355D-01-0.891D-01-0.202D-01 0.341D+00 0.795D+00
 Coeff:     -0.214D-03 0.304D-03 0.119D-02 0.288D-02 0.574D-02-0.946D-03
 Coeff:     -0.355D-01-0.891D-01-0.202D-01 0.341D+00 0.795D+00
 Gap=     0.092 Goal=   None    Shift=    0.000
 Gap=     0.136 Goal=   None    Shift=    0.000
 RMSDP=4.00D-07 MaxDP=1.82D-04 DE=-8.56D-07 OVMax= 6.85D-04

 Cycle  12  Pass 1  IDiag  1:
 RMSU=  2.01D-07    CP:  9.77D-01  2.49D+00  8.97D-01  7.66D-01  1.17D+00
                    CP:  1.26D+00  1.84D+00  1.82D+00  1.60D+00  1.68D+00
                    CP:  1.19D+00
 E= -3616.55145798778     Delta-E=       -0.000000265201 Rises=F Damp=F
 DIIS: error= 3.51D-06 at cycle  12 NSaved=  12.
 NSaved=12 IEnMin=12 EnMin= -3616.55145798778     IErMin=12 ErrMin= 3.51D-06
 ErrMax= 3.51D-06  0.00D+00 EMaxC= 1.00D-01 BMatC= 9.10D-08 BMatP= 2.25D-07
 IDIUse=1 WtCom= 1.00D+00 WtEn= 0.00D+00
 Coeff-Com:  0.933D-04-0.141D-03-0.202D-03-0.141D-03 0.161D-02 0.718D-02
 Coeff-Com:  0.177D-01-0.310D-02-0.148D+00-0.121D+00 0.392D+00 0.854D+00
 Coeff:      0.933D-04-0.141D-03-0.202D-03-0.141D-03 0.161D-02 0.718D-02
 Coeff:      0.177D-01-0.310D-02-0.148D+00-0.121D+00 0.392D+00 0.854D+00
 Gap=     0.092 Goal=   None    Shift=    0.000
 Gap=     0.136 Goal=   None    Shift=    0.000
 RMSDP=2.91D-07 MaxDP=1.16D-04 DE=-2.65D-07 OVMax= 5.69D-04

 Cycle  13  Pass 1  IDiag  1:
 RMSU=  1.08D-07    CP:  9.77D-01  2.49D+00  8.97D-01  7.66D-01  1.17D+00
                    CP:  1.26D+00  1.85D+00  1.84D+00  1.64D+00  1.86D+00
                    CP:  1.67D+00  1.59D+00
 E= -3616.55145812010     Delta-E=       -0.000000132319 Rises=F Damp=F
 DIIS: error= 1.86D-06 at cycle  13 NSaved=  13.
 NSaved=13 IEnMin=13 EnMin= -3616.55145812010     IErMin=13 ErrMin= 1.86D-06
 ErrMax= 1.86D-06  0.00D+00 EMaxC= 1.00D-01 BMatC= 2.53D-08 BMatP= 9.10D-08
 IDIUse=1 WtCom= 1.00D+00 WtEn= 0.00D+00
 Coeff-Com:  0.910D-04-0.132D-03-0.463D-03-0.978D-03-0.115D-02 0.230D-02
 Coeff-Com:  0.184D-01 0.287D-01-0.519D-01-0.156D+00-0.587D-01 0.299D+00
 Coeff-Com:  0.921D+00
 Coeff:      0.910D-04-0.132D-03-0.463D-03-0.978D-03-0.115D-02 0.230D-02
 Coeff:      0.184D-01 0.287D-01-0.519D-01-0.156D+00-0.587D-01 0.299D+00
 Coeff:      0.921D+00
 Gap=     0.092 Goal=   None    Shift=    0.000
 Gap=     0.136 Goal=   None    Shift=    0.000
 RMSDP=2.13D-07 MaxDP=6.15D-05 DE=-1.32D-07 OVMax= 5.06D-04

 Cycle  14  Pass 1  IDiag  1:
 RMSU=  7.79D-08    CP:  9.77D-01  2.49D+00  8.97D-01  7.66D-01  1.17D+00
                    CP:  1.26D+00  1.85D+00  1.84D+00  1.64D+00  1.98D+00
                    CP:  1.91D+00  2.25D+00  1.72D+00
 E= -3616.55145818557     Delta-E=       -0.000000065473 Rises=F Damp=F
 DIIS: error= 1.22D-06 at cycle  14 NSaved=  14.
 NSaved=14 IEnMin=14 EnMin= -3616.55145818557     IErMin=14 ErrMin= 1.22D-06
 ErrMax= 1.22D-06  0.00D+00 EMaxC= 1.00D-01 BMatC= 1.23D-08 BMatP= 2.53D-08
 IDIUse=1 WtCom= 1.00D+00 WtEn= 0.00D+00
 Coeff-Com: -0.257D-05 0.462D-05-0.943D-04-0.278D-03-0.734D-03-0.163D-02
 Coeff-Com:  0.143D-02 0.115D-01 0.231D-01-0.208D-01-0.107D+00-0.173D+00
 Coeff-Com:  0.309D+00 0.958D+00
 Coeff:     -0.257D-05 0.462D-05-0.943D-04-0.278D-03-0.734D-03-0.163D-02
 Coeff:      0.143D-02 0.115D-01 0.231D-01-0.208D-01-0.107D+00-0.173D+00
 Coeff:      0.309D+00 0.958D+00
 Gap=     0.092 Goal=   None    Shift=    0.000
 Gap=     0.136 Goal=   None    Shift=    0.000
 RMSDP=1.78D-07 MaxDP=5.47D-05 DE=-6.55D-08 OVMax= 4.31D-04

 Cycle  15  Pass 1  IDiag  1:
 RMSU=  4.43D-08    CP:  9.77D-01  2.49D+00  8.97D-01  7.66D-01  1.17D+00
                    CP:  1.26D+00  1.85D+00  1.84D+00  1.64D+00  2.03D+00
                    CP:  2.10D+00  2.74D+00  2.59D+00  1.91D+00
 E= -3616.55145822431     Delta-E=       -0.000000038743 Rises=F Damp=F
 DIIS: error= 8.92D-07 at cycle  15 NSaved=  15.
 NSaved=15 IEnMin=15 EnMin= -3616.55145822431     IErMin=15 ErrMin= 8.92D-07
 ErrMax= 8.92D-07  0.00D+00 EMaxC= 1.00D-01 BMatC= 7.31D-09 BMatP= 1.23D-08
 IDIUse=1 WtCom= 1.00D+00 WtEn= 0.00D+00
 Coeff-Com: -0.437D-04 0.635D-04 0.165D-03 0.324D-03 0.243D-03-0.211D-02
 Coeff-Com: -0.696D-02-0.702D-02 0.320D-01 0.590D-01 0.127D-01-0.228D+00
 Coeff-Com: -0.311D+00 0.398D+00 0.105D+01
 Coeff:     -0.437D-04 0.635D-04 0.165D-03 0.324D-03 0.243D-03-0.211D-02
 Coeff:     -0.696D-02-0.702D-02 0.320D-01 0.590D-01 0.127D-01-0.228D+00
 Coeff:     -0.311D+00 0.398D+00 0.105D+01
 Gap=     0.092 Goal=   None    Shift=    0.000
 Gap=     0.136 Goal=   None    Shift=    0.000
 RMSDP=1.96D-07 MaxDP=6.07D-05 DE=-3.87D-08 OVMax= 4.74D-04

 Cycle  16  Pass 1  IDiag  1:
 RMSU=  7.94D-08    CP:  9.77D-01  2.49D+00  8.97D-01  7.66D-01  1.17D+00
                    CP:  1.26D+00  1.85D+00  1.84D+00  1.64D+00  2.07D+00
                    CP:  2.24D+00  3.00D+00  3.00D+00  3.00D+00  2.22D+00
 E= -3616.55145825729     Delta-E=       -0.000000032975 Rises=F Damp=F
 DIIS: error= 7.51D-07 at cycle  16 NSaved=  16.
 NSaved=16 IEnMin=16 EnMin= -3616.55145825729     IErMin=16 ErrMin= 7.51D-07
 ErrMax= 7.51D-07  0.00D+00 EMaxC= 1.00D-01 BMatC= 5.38D-09 BMatP= 7.31D-09
 IDIUse=1 WtCom= 1.00D+00 WtEn= 0.00D+00
 Coeff-Com: -0.178D-04 0.258D-04 0.109D-03 0.275D-03 0.459D-03-0.539D-03
 Coeff-Com: -0.313D-02-0.875D-02-0.389D-03 0.336D-01 0.965D-01-0.255D-01
 Coeff-Com: -0.328D+00-0.347D+00 0.586D+00 0.996D+00
 Coeff:     -0.178D-04 0.258D-04 0.109D-03 0.275D-03 0.459D-03-0.539D-03
 Coeff:     -0.313D-02-0.875D-02-0.389D-03 0.336D-01 0.965D-01-0.255D-01
 Coeff:     -0.328D+00-0.347D+00 0.586D+00 0.996D+00
 Gap=     0.092 Goal=   None    Shift=    0.000
 Gap=     0.136 Goal=   None    Shift=    0.000
 RMSDP=1.92D-07 MaxDP=6.31D-05 DE=-3.30D-08 OVMax= 4.52D-04

 Cycle  17  Pass 1  IDiag  1:
 RMSU=  8.73D-08    CP:  9.77D-01  2.49D+00  8.97D-01  7.66D-01  1.17D+00
                    CP:  1.26D+00  1.85D+00  1.84D+00  1.63D+00  2.11D+00
                    CP:  2.38D+00  3.00D+00  3.00D+00  3.00D+00  3.00D+00
                    CP:  2.84D+00
 E= -3616.55145828339     Delta-E=       -0.000000026099 Rises=F Damp=F
 DIIS: error= 5.12D-07 at cycle  17 NSaved=  17.
 NSaved=17 IEnMin=17 EnMin= -3616.55145828339     IErMin=17 ErrMin= 5.12D-07
 ErrMax= 5.12D-07  0.00D+00 EMaxC= 1.00D-01 BMatC= 2.97D-09 BMatP= 5.38D-09
 IDIUse=1 WtCom= 1.00D+00 WtEn= 0.00D+00
 Coeff-Com:  0.212D-04-0.306D-04-0.689D-04-0.886D-04 0.113D-03 0.112D-02
 Coeff-Com:  0.466D-02 0.196D-02-0.262D-01-0.324D-01 0.650D-01 0.139D+00
 Coeff-Com:  0.719D-01-0.481D+00-0.434D+00 0.104D+00 0.159D+01
 Coeff:      0.212D-04-0.306D-04-0.689D-04-0.886D-04 0.113D-03 0.112D-02
 Coeff:      0.466D-02 0.196D-02-0.262D-01-0.324D-01 0.650D-01 0.139D+00
 Coeff:      0.719D-01-0.481D+00-0.434D+00 0.104D+00 0.159D+01
 Gap=     0.092 Goal=   None    Shift=    0.000
 Gap=     0.136 Goal=   None    Shift=    0.000
 RMSDP=2.87D-07 MaxDP=9.03D-05 DE=-2.61D-08 OVMax= 6.83D-04

 Cycle  18  Pass 1  IDiag  1:
 RMSU=  2.13D-07    CP:  9.77D-01  2.49D+00  8.97D-01  7.66D-01  1.17D+00
                    CP:  1.26D+00  1.84D+00  1.83D+00  1.62D+00  2.16D+00
                    CP:  2.58D+00  3.00D+00  3.00D+00  3.00D+00  3.00D+00
                    CP:  3.00D+00  2.75D+00
 E= -3616.55145831178     Delta-E=       -0.000000028389 Rises=F Damp=F
 DIIS: error= 3.43D-07 at cycle  18 NSaved=  18.
 NSaved=18 IEnMin=18 EnMin= -3616.55145831178     IErMin=18 ErrMin= 3.43D-07
 ErrMax= 3.43D-07  0.00D+00 EMaxC= 1.00D-01 BMatC= 1.90D-09 BMatP= 2.97D-09
 IDIUse=1 WtCom= 1.00D+00 WtEn= 0.00D+00
 Coeff-Com:  0.121D-04-0.181D-04-0.900D-04-0.181D-03-0.221D-03 0.362D-03
 Coeff-Com:  0.365D-02 0.620D-02-0.866D-02-0.334D-01-0.188D-01 0.404D-01
 Coeff-Com:  0.235D+00 0.781D-01-0.459D+00-0.928D+00 0.785D+00 0.130D+01
 Coeff:      0.121D-04-0.181D-04-0.900D-04-0.181D-03-0.221D-03 0.362D-03
 Coeff:      0.365D-02 0.620D-02-0.866D-02-0.334D-01-0.188D-01 0.404D-01
 Coeff:      0.235D+00 0.781D-01-0.459D+00-0.928D+00 0.785D+00 0.130D+01
 Gap=     0.092 Goal=   None    Shift=    0.000
 Gap=     0.136 Goal=   None    Shift=    0.000
 RMSDP=2.78D-07 MaxDP=8.60D-05 DE=-2.84D-08 OVMax= 6.64D-04

 Cycle  19  Pass 1  IDiag  1:
 RMSU=  1.28D-07    CP:  9.77D-01  2.49D+00  8.97D-01  7.66D-01  1.17D+00
                    CP:  1.26D+00  1.84D+00  1.83D+00  1.61D+00  2.21D+00
                    CP:  2.78D+00  3.00D+00  3.00D+00  3.00D+00  3.00D+00
                    CP:  3.00D+00  3.00D+00  2.02D+00
 E= -3616.55145833049     Delta-E=       -0.000000018717 Rises=F Damp=F
 DIIS: error= 2.16D-07 at cycle  19 NSaved=  19.
 NSaved=19 IEnMin=19 EnMin= -3616.55145833049     IErMin=19 ErrMin= 2.16D-07
 ErrMax= 2.16D-07  0.00D+00 EMaxC= 1.00D-01 BMatC= 7.71D-10 BMatP= 1.90D-09
 IDIUse=1 WtCom= 1.00D+00 WtEn= 0.00D+00
 Coeff-Com: -0.965D-05 0.135D-04 0.211D-05-0.123D-04-0.116D-03-0.592D-03
 Coeff-Com: -0.901D-03 0.153D-02 0.113D-01 0.383D-02-0.317D-01-0.769D-01
 Coeff-Com:  0.356D-01 0.301D+00 0.129D+00-0.524D+00-0.559D+00 0.490D+00
 Coeff-Com:  0.122D+01
 Coeff:     -0.965D-05 0.135D-04 0.211D-05-0.123D-04-0.116D-03-0.592D-03
 Coeff:     -0.901D-03 0.153D-02 0.113D-01 0.383D-02-0.317D-01-0.769D-01
 Coeff:      0.356D-01 0.301D+00 0.129D+00-0.524D+00-0.559D+00 0.490D+00
 Coeff:      0.122D+01
 Gap=     0.092 Goal=   None    Shift=    0.000
 Gap=     0.136 Goal=   None    Shift=    0.000
 RMSDP=2.18D-07 MaxDP=6.44D-05 DE=-1.87D-08 OVMax= 5.24D-04

 Cycle  20  Pass 1  IDiag  1:
 RMSU=  1.17D-08    CP:  9.77D-01  2.49D+00  8.97D-01  7.66D-01  1.17D+00
                    CP:  1.26D+00  1.84D+00  1.82D+00  1.60D+00  2.25D+00
                    CP:  2.93D+00  3.00D+00  3.00D+00  3.00D+00  3.00D+00
                    CP:  3.00D+00  3.00D+00  2.81D+00  1.90D+00
 E= -3616.55145833762     Delta-E=       -0.000000007123 Rises=F Damp=F
 DIIS: error= 1.19D-07 at cycle  20 NSaved=  20.
 NSaved=20 IEnMin=20 EnMin= -3616.55145833762     IErMin=20 ErrMin= 1.19D-07
 ErrMax= 1.19D-07  0.00D+00 EMaxC= 1.00D-01 BMatC= 2.16D-10 BMatP= 7.71D-10
 IDIUse=1 WtCom= 1.00D+00 WtEn= 0.00D+00
 Coeff-Com: -0.109D-04 0.156D-04 0.410D-04 0.748D-04 0.383D-04-0.545D-03
 Coeff-Com: -0.211D-02-0.181D-02 0.979D-02 0.164D-01-0.419D-02-0.600D-01
 Coeff-Com: -0.904D-01 0.126D+00 0.287D+00 0.970D-01-0.593D+00-0.303D+00
 Coeff-Com:  0.556D+00 0.962D+00
 Coeff:     -0.109D-04 0.156D-04 0.410D-04 0.748D-04 0.383D-04-0.545D-03
 Coeff:     -0.211D-02-0.181D-02 0.979D-02 0.164D-01-0.419D-02-0.600D-01
 Coeff:     -0.904D-01 0.126D+00 0.287D+00 0.970D-01-0.593D+00-0.303D+00
 Coeff:      0.556D+00 0.962D+00
 Gap=     0.092 Goal=   None    Shift=    0.000
 Gap=     0.136 Goal=   None    Shift=    0.000
 RMSDP=1.00D-07 MaxDP=2.76D-05 DE=-7.12D-09 OVMax= 2.45D-04

 Cycle  21  Pass 1  IDiag  1:
 Restarting incremental Fock formation.
 E= -3616.55145833897     Delta-E=       -0.000000001357 Rises=F Damp=F
 DIIS: error= 3.66D-08 at cycle  21 NSaved=  20.
 NSaved=20 IEnMin=20 EnMin= -3616.55145833897     IErMin=20 ErrMin= 3.66D-08
 ErrMax= 3.66D-08  0.00D+00 EMaxC= 1.00D-01 BMatC= 4.20D-11 BMatP= 2.16D-10
 IDIUse=1 WtCom= 1.00D+00 WtEn= 0.00D+00
 Coeff-Com:  0.260D-06 0.775D-05 0.142D-04 0.277D-04 0.666D-05-0.258D-03
 Coeff-Com: -0.613D-03-0.591D-03 0.231D-02 0.699D-02 0.507D-02-0.294D-01
 Coeff-Com: -0.389D-01 0.330D-01 0.121D+00 0.230D-01-0.170D+00-0.200D+00
 Coeff-Com:  0.217D+00 0.103D+01
 Coeff:      0.260D-06 0.775D-05 0.142D-04 0.277D-04 0.666D-05-0.258D-03
 Coeff:     -0.613D-03-0.591D-03 0.231D-02 0.699D-02 0.507D-02-0.294D-01
 Coeff:     -0.389D-01 0.330D-01 0.121D+00 0.230D-01-0.170D+00-0.200D+00
 Coeff:      0.217D+00 0.103D+01
 Gap=     0.092 Goal=   None    Shift=    0.000
 Gap=     0.136 Goal=   None    Shift=    0.000
 RMSDP=3.13D-08 MaxDP=8.30D-06 DE=-1.36D-09 OVMax= 7.59D-05

 Cycle  22  Pass 1  IDiag  1:
 RMSU=  3.13D-08    CP:  1.00D+00
 E= -3616.55145833887     Delta-E=        0.000000000104 Rises=F Damp=F
 DIIS: error= 2.61D-08 at cycle  22 NSaved=  20.
 NSaved=20 IEnMin=19 EnMin= -3616.55145833897     IErMin=20 ErrMin= 2.61D-08
 ErrMax= 2.61D-08  0.00D+00 EMaxC= 1.00D-01 BMatC= 1.37D-11 BMatP= 4.20D-11
 IDIUse=1 WtCom= 1.00D+00 WtEn= 0.00D+00
 Coeff-Com:  0.419D-05 0.742D-05 0.235D-04 0.591D-04 0.902D-05-0.236D-03
 Coeff-Com: -0.116D-02-0.163D-03 0.375D-02 0.838D-02-0.313D-02-0.304D-01
 Coeff-Com: -0.240D-01 0.330D-01 0.100D+00-0.191D-01-0.183D+00-0.750D-01
 Coeff-Com:  0.450D+00 0.741D+00
 Coeff:      0.419D-05 0.742D-05 0.235D-04 0.591D-04 0.902D-05-0.236D-03
 Coeff:     -0.116D-02-0.163D-03 0.375D-02 0.838D-02-0.313D-02-0.304D-01
 Coeff:     -0.240D-01 0.330D-01 0.100D+00-0.191D-01-0.183D+00-0.750D-01
 Coeff:      0.450D+00 0.741D+00
 Gap=     0.092 Goal=   None    Shift=    0.000
 Gap=     0.136 Goal=   None    Shift=    0.000
 RMSDP=5.87D-09 MaxDP=1.64D-06 DE= 1.04D-10 OVMax= 1.35D-05

 Cycle  23  Pass 1  IDiag  1:
 RMSU=  1.75D-09    CP:  1.00D+00  1.18D+00
 E= -3616.55145833896     Delta-E=       -0.000000000093 Rises=F Damp=F
 DIIS: error= 1.29D-08 at cycle  23 NSaved=  20.
 NSaved=20 IEnMin=18 EnMin= -3616.55145833897     IErMin=20 ErrMin= 1.29D-08
 ErrMax= 1.29D-08  0.00D+00 EMaxC= 1.00D-01 BMatC= 3.58D-12 BMatP= 1.37D-11
 IDIUse=1 WtCom= 1.00D+00 WtEn= 0.00D+00
 Coeff-Com: -0.144D-07 0.714D-05 0.384D-04 0.833D-04 0.262D-04-0.516D-03
 Coeff-Com: -0.729D-03 0.124D-03 0.306D-02 0.630D-02-0.511D-02-0.220D-01
 Coeff-Com: -0.150D-01 0.430D-01 0.381D-01-0.319D-01-0.977D-01-0.113D+00
 Coeff-Com:  0.313D+00 0.883D+00
 Coeff:     -0.144D-07 0.714D-05 0.384D-04 0.833D-04 0.262D-04-0.516D-03
 Coeff:     -0.729D-03 0.124D-03 0.306D-02 0.630D-02-0.511D-02-0.220D-01
 Coeff:     -0.150D-01 0.430D-01 0.381D-01-0.319D-01-0.977D-01-0.113D+00
 Coeff:      0.313D+00 0.883D+00
 Gap=     0.092 Goal=   None    Shift=    0.000
 Gap=     0.136 Goal=   None    Shift=    0.000
 RMSDP=2.97D-09 MaxDP=6.73D-07 DE=-9.28D-11 OVMax= 5.93D-06

 Error on total polarization charges =  0.03252
 SCF Done:  E(UM062X) =  -3616.55145834     A.U. after   23 cycles
            NFock= 23  Conv=0.30D-08     -V/T= 2.0056
 <Sx>= 0.0000 <Sy>= 0.0000 <Sz>= 0.5000 <S**2>= 0.7733 S= 0.5116
 <L.S>= 0.000000000000E+00
 KE= 3.596575766739D+03 PE=-3.338474115437D+04 EE= 1.371263894714D+04
 Annihilation of the first spin contaminant:
 S**2 before annihilation     0.7733,   after     0.7504
 Leave Link  502 at Thu Nov  6 09:00:18 2025, MaxMem= 30870077440 cpu:          463568.7 elap:            7331.0
 (Enter /public/software/gauss/g16/l601.exe)
 Copying SCF densities to generalized density rwf, IOpCl= 1 IROHF=0.
 Hyperfine terms turned off by default for NAtoms > 100.

 **********************************************************************

            Population analysis using the SCF density.

 **********************************************************************

 Orbital symmetries:
 Alpha Orbitals:
       Occupied  (A) (A) (A) (A) (A) (A) (A) (A) (A) (A) (A) (A)
                 (A) (A) (A) (A) (A) (A) (A) (A) (A) (A) (A) (A)
                 (A) (A) (A) (A) (A) (A) (A) (A) (A) (A) (A) (A)
                 (A) (A) (A) (A) (A) (A) (A) (A) (A) (A) (A) (A)
                 (A) (A) (A) (A) (A) (A) (A) (A) (A) (A) (A) (A)
                 (A) (A) (A) (A) (A) (A) (A) (A) (A) (A) (A) (A)
                 (A) (A) (A) (A) (A) (A) (A) (A) (A) (A) (A) (A)
                 (A) (A) (A) (A) (A) (A) (A) (A) (A) (A) (A) (A)
                 (A) (A) (A) (A) (A) (A) (A) (A) (A) (A) (A) (A)
                 (A) (A) (A) (A) (A) (A) (A) (A) (A) (A) (A) (A)
                 (A) (A) (A) (A) (A) (A) (A) (A) (A) (A) (A) (A)
                 (A) (A) (A) (A) (A) (A) (A) (A) (A) (A) (A) (A)
                 (A) (A) (A) (A) (A) (A) (A) (A) (A) (A) (A) (A)
                 (A) (A) (A) (A) (A) (A) (A) (A) (A) (A) (A) (A)
                 (A) (A) (A) (A) (A) (A) (A) (A) (A) (A) (A) (A)
                 (A) (A) (A) (A) (A) (A) (A) (A) (A) (A) (A) (A)
                 (A) (A) (A) (A) (A) (A) (A) (A) (A) (A) (A) (A)
                 (A) (A) (A) (A) (A) (A) (A) (A) (A) (A) (A) (A)
                 (A) (A) (A) (A) (A) (A) (A) (A) (A) (A) (A) (A)
                 (A) (A) (A) (A) (A) (A) (A) (A) (A) (A) (A) (A)
                 (A) (A) (A) (A) (A) (A) (A) (A) (A) (A) (A) (A)
                 (A) (A) (A) (A) (A) (A) (A) (A) (A) (A) (A) (A)
                 (A) (A) (A) (A) (A) (A) (A) (A) (A) (A) (A) (A)
                 (A) (A) (A) (A) (A) (A) (A) (A) (A) (A) (A) (A)
                 (A) (A) (A) (A)
       Virtual   (A) (A) (A) (A) (A) (A) (A) (A) (A) (A) (A) (A)
                 (A) (A) (A) (A) (A) (A) (A) (A) (A) (A) (A) (A)
                 (A) (A) (A) (A) (A) (A) (A) (A) (A) (A) (A) (A)
                 (A) (A) (A) (A) (A) (A) (A) (A) (A) (A) (A) (A)
                 (A) (A) (A) (A) (A) (A) (A) (A) (A) (A) (A) (A)
                 (A) (A) (A) (A) (A) (A) (A) (A) (A) (A) (A) (A)
                 (A) (A) (A) (A) (A) (A) (A) (A) (A) (A) (A) (A)
                 (A) (A) (A) (A) (A) (A) (A) (A) (A) (A) (A) (A)
                 (A) (A) (A) (A) (A) (A) (A) (A) (A) (A) (A) (A)
                 (A) (A) (A) (A) (A) (A) (A) (A) (A) (A) (A) (A)
                 (A) (A) (A) (A) (A) (A) (A) (A) (A) (A) (A) (A)
                 (A) (A) (A) (A) (A) (A) (A) (A) (A) (A) (A) (A)
                 (A) (A) (A) (A) (A) (A) (A) (A) (A) (A) (A) (A)
                 (A) (A) (A) (A) (A) (A) (A) (A) (A) (A) (A) (A)
                 (A) (A) (A) (A) (A) (A) (A) (A) (A) (A) (A) (A)
                 (A) (A) (A) (A) (A) (A) (A) (A) (A) (A) (A) (A)
                 (A) (A) (A) (A) (A) (A) (A) (A) (A) (A) (A) (A)
                 (A) (A) (A) (A) (A) (A) (A) (A) (A) (A) (A) (A)
                 (A) (A) (A) (A) (A) (A) (A) (A) (A) (A) (A) (A)
                 (A) (A) (A) (A) (A) (A) (A) (A) (A) (A) (A) (A)
                 (A) (A) (A) (A) (A) (A) (A) (A) (A) (A) (A) (A)
                 (A) (A) (A) (A) (A) (A) (A) (A) (A) (A) (A) (A)
                 (A) (A) (A) (A) (A) (A) (A) (A) (A) (A) (A) (A)
                 (A) (A) (A) (A) (A) (A) (A) (A) (A) (A) (A) (A)
                 (A) (A) (A) (A) (A) (A) (A) (A) (A) (A) (A) (A)
                 (A) (A) (A) (A) (A) (A) (A) (A) (A) (A) (A) (A)
                 (A) (A) (A) (A) (A) (A) (A) (A) (A) (A) (A) (A)
                 (A) (A) (A) (A) (A) (A) (A) (A) (A) (A) (A) (A)
                 (A) (A) (A) (A) (A) (A) (A) (A) (A) (A) (A) (A)
                 (A) (A) (A) (A) (A) (A) (A) (A) (A) (A) (A) (A)
                 (A) (A) (A) (A) (A) (A) (A) (A) (A) (A) (A) (A)
                 (A) (A) (A) (A) (A) (A) (A) (A) (A) (A) (A) (A)
                 (A) (A) (A) (A) (A) (A) (A) (A) (A) (A) (A) (A)
                 (A) (A) (A) (A) (A) (A) (A) (A) (A) (A) (A) (A)
                 (A) (A) (A) (A) (A) (A) (A) (A) (A) (A) (A) (A)
                 (A) (A) (A) (A) (A) (A) (A) (A) (A) (A) (A) (A)
                 (A) (A) (A) (A) (A) (A) (A) (A) (A) (A) (A) (A)
                 (A) (A) (A) (A) (A) (A) (A) (A) (A) (A) (A) (A)
                 (A) (A) (A) (A) (A) (A) (A) (A) (A) (A) (A) (A)
                 (A) (A) (A) (A) (A) (A) (A) (A) (A) (A) (A) (A)
                 (A) (A) (A) (A) (A) (A) (A) (A) (A) (A) (A) (A)
                 (A) (A) (A) (A) (A) (A) (A) (A) (A) (A) (A) (A)
                 (A) (A) (A) (A) (A) (A) (A) (A) (A) (A) (A) (A)
                 (A) (A) (A) (A) (A) (A) (A) (A) (A) (A) (A) (A)
                 (A) (A) (A) (A) (A) (A) (A) (A) (A) (A) (A) (A)
                 (A) (A) (A) (A) (A) (A) (A) (A) (A) (A) (A) (A)
                 (A) (A) (A) (A) (A) (A) (A) (A) (A) (A) (A) (A)
                 (A) (A) (A) (A) (A) (A) (A) (A) (A) (A) (A) (A)
                 (A) (A) (A) (A) (A) (A) (A) (A) (A) (A) (A) (A)
                 (A) (A) (A) (A) (A) (A) (A) (A) (A) (A) (A) (A)
                 (A) (A) (A) (A) (A) (A) (A) (A) (A) (A) (A) (A)
                 (A) (A) (A) (A) (A) (A) (A) (A) (A) (A) (A) (A)
                 (A) (A) (A) (A) (A) (A) (A) (A) (A) (A) (A) (A)
                 (A) (A) (A) (A) (A) (A) (A) (A) (A) (A) (A) (A)
                 (A) (A) (A) (A) (A) (A) (A) (A) (A) (A) (A) (A)
                 (A) (A) (A) (A) (A) (A) (A) (A) (A) (A) (A) (A)
                 (A) (A) (A) (A) (A) (A) (A) (A) (A) (A) (A) (A)
                 (A) (A) (A) (A) (A) (A) (A) (A) (A) (A) (A) (A)
                 (A) (A) (A) (A) (A) (A) (A) (A) (A) (A) (A) (A)
                 (A) (A) (A) (A) (A) (A) (A) (A) (A) (A) (A) (A)
                 (A) (A) (A) (A) (A) (A) (A) (A) (A) (A) (A) (A)
                 (A) (A) (A) (A) (A) (A) (A) (A) (A) (A) (A) (A)
                 (A) (A) (A) (A) (A) (A) (A) (A) (A) (A) (A) (A)
                 (A) (A) (A) (A) (A) (A) (A) (A) (A) (A) (A) (A)
                 (A) (A) (A) (A) (A) (A) (A) (A) (A) (A) (A) (A)
                 (A) (A) (A) (A) (A) (A) (A) (A) (A) (A) (A) (A)
                 (A) (A) (A) (A) (A) (A) (A) (A) (A) (A) (A) (A)
                 (A) (A) (A) (A) (A) (A) (A) (A) (A) (A) (A) (A)
                 (A) (A) (A) (A) (A) (A) (A) (A) (A) (A) (A) (A)
                 (A) (A) (A) (A) (A) (A) (A) (A) (A) (A) (A) (A)
                 (A) (A) (A) (A) (A) (A) (A) (A) (A) (A) (A) (A)
                 (A) (A) (A) (A) (A) (A) (A) (A) (A) (A) (A) (A)
                 (A) (A) (A) (A) (A) (A) (A) (A) (A) (A) (A) (A)
                 (A) (A) (A) (A) (A) (A) (A) (A) (A) (A) (A) (A)
                 (A) (A) (A) (A) (A) (A) (A) (A) (A) (A) (A) (A)
                 (A) (A) (A) (A) (A) (A) (A) (A) (A) (A) (A) (A)
                 (A) (A) (A) (A) (A) (A) (A) (A) (A) (A) (A) (A)
                 (A) (A) (A) (A) (A) (A) (A) (A) (A) (A) (A) (A)
                 (A) (A) (A) (A) (A) (A) (A) (A) (A) (A) (A) (A)
                 (A) (A) (A) (A) (A) (A) (A) (A) (A) (A) (A) (A)
                 (A) (A) (A) (A) (A) (A) (A) (A) (A) (A) (A) (A)
                 (A) (A) (A) (A) (A) (A) (A) (A) (A) (A) (A) (A)
                 (A) (A) (A) (A) (A) (A) (A) (A) (A) (A) (A) (A)
                 (A) (A) (A) (A) (A) (A) (A) (A) (A) (A) (A) (A)
                 (A) (A) (A) (A) (A) (A) (A) (A) (A) (A) (A) (A)
                 (A) (A) (A) (A) (A) (A) (A) (A) (A) (A) (A) (A)
                 (A) (A) (A) (A) (A) (A) (A) (A) (A) (A) (A) (A)
                 (A) (A) (A) (A) (A) (A) (A) (A) (A) (A) (A) (A)
                 (A) (A) (A) (A) (A) (A) (A) (A) (A) (A) (A) (A)
                 (A) (A) (A) (A) (A) (A) (A) (A) (A) (A) (A) (A)
                 (A) (A) (A) (A) (A) (A) (A) (A) (A) (A) (A) (A)
                 (A) (A) (A) (A) (A) (A) (A) (A) (A) (A) (A) (A)
                 (A) (A) (A) (A) (A) (A) (A) (A) (A) (A) (A) (A)
                 (A) (A) (A) (A) (A) (A) (A) (A) (A) (A) (A) (A)
                 (A) (A) (A) (A) (A) (A) (A) (A) (A) (A) (A) (A)
                 (A) (A) (A) (A) (A) (A) (A) (A) (A) (A) (A) (A)
                 (A) (A) (A) (A) (A) (A) (A) (A) (A) (A) (A) (A)
                 (A) (A) (A) (A) (A) (A) (A) (A) (A) (A) (A) (A)
                 (A) (A) (A) (A) (A) (A) (A) (A) (A) (A) (A) (A)
                 (A) (A) (A) (A) (A) (A) (A) (A) (A) (A) (A) (A)
                 (A) (A) (A) (A) (A) (A) (A) (A) (A) (A) (A) (A)
                 (A) (A) (A) (A) (A) (A) (A) (A) (A) (A) (A) (A)
                 (A) (A) (A) (A) (A) (A) (A) (A) (A) (A) (A) (A)
                 (A) (A) (A) (A) (A) (A) (A) (A) (A) (A) (A) (A)
                 (A) (A) (A) (A) (A) (A) (A) (A) (A) (A) (A) (A)
                 (A) (A) (A) (A) (A) (A) (A) (A) (A) (A) (A) (A)
                 (A) (A) (A) (A) (A) (A) (A) (A) (A) (A) (A) (A)
                 (A) (A) (A) (A) (A) (A) (A) (A) (A) (A) (A) (A)
                 (A) (A) (A) (A) (A) (A) (A) (A) (A) (A) (A) (A)
                 (A) (A) (A) (A) (A) (A) (A) (A) (A) (A) (A) (A)
                 (A) (A) (A) (A) (A) (A) (A) (A) (A) (A) (A) (A)
                 (A) (A) (A) (A) (A) (A) (A) (A) (A) (A) (A) (A)
                 (A) (A) (A) (A) (A) (A) (A) (A) (A) (A) (A) (A)
                 (A) (A) (A) (A) (A) (A) (A) (A) (A) (A) (A) (A)
                 (A) (A) (A) (A) (A) (A) (A) (A) (A) (A) (A) (A)
                 (A) (A) (A) (A) (A) (A) (A) (A) (A) (A) (A) (A)
                 (A) (A) (A) (A) (A) (A) (A) (A) (A) (A) (A) (A)
                 (A) (A) (A) (A) (A) (A) (A) (A) (A) (A) (A) (A)
                 (A) (A) (A) (A) (A) (A) (A) (A) (A) (A) (A) (A)
                 (A) (A) (A) (A) (A) (A) (A) (A) (A) (A) (A) (A)
                 (A) (A) (A) (A) (A) (A) (A) (A) (A) (A) (A) (A)
                 (A) (A) (A) (A) (A) (A) (A) (A) (A) (A) (A) (A)
                 (A) (A) (A) (A) (A) (A) (A) (A) (A) (A) (A) (A)
                 (A) (A) (A) (A) (A) (A) (A) (A) (A) (A) (A) (A)
                 (A) (A) (A) (A) (A) (A) (A) (A) (A) (A) (A) (A)
                 (A) (A) (A) (A) (A) (A) (A) (A) (A) (A) (A) (A)
                 (A) (A) (A) (A) (A) (A) (A) (A) (A) (A) (A) (A)
                 (A) (A) (A) (A) (A) (A) (A) (A) (A) (A) (A) (A)
                 (A) (A) (A) (A) (A) (A) (A) (A) (A) (A) (A) (A)
                 (A) (A) (A) (A) (A) (A) (A) (A) (A) (A) (A) (A)
                 (A) (A) (A) (A) (A) (A) (A) (A) (A) (A) (A) (A)
                 (A) (A) (A) (A) (A) (A) (A) (A) (A) (A) (A) (A)
                 (A) (A) (A) (A) (A) (A) (A) (A) (A) (A) (A) (A)
                 (A) (A) (A) (A) (A) (A) (A) (A) (A) (A) (A) (A)
                 (A) (A) (A) (A) (A) (A) (A) (A) (A) (A) (A) (A)
                 (A) (A) (A) (A) (A) (A) (A) (A) (A) (A) (A) (A)
                 (A) (A) (A) (A) (A) (A) (A) (A) (A) (A) (A) (A)
                 (A) (A) (A) (A) (A) (A) (A) (A) (A) (A) (A) (A)
                 (A) (A) (A) (A) (A) (A) (A) (A) (A) (A) (A) (A)
                 (A) (A) (A) (A) (A) (A) (A) (A) (A) (A) (A) (A)
[...]
  Beta virt. eigenvalues --    5.40888   5.41065   5.41340   5.41415   5.41490
  Beta virt. eigenvalues --    5.41624   5.41699   5.42073   5.42213   5.42754
  Beta virt. eigenvalues --    5.42981   5.43078   5.43551   5.43682   5.44425
  Beta virt. eigenvalues --    5.44876   5.45170   5.45628   5.46507   5.46893
  Beta virt. eigenvalues --    5.47115   5.47837   5.48946   5.49182   5.49233
  Beta virt. eigenvalues --    5.49276   5.49322   5.49894   5.50053   5.50473
  Beta virt. eigenvalues --    5.51057   5.51764   5.52496   5.52931   5.53259
  Beta virt. eigenvalues --    5.53465   5.53709   5.53780   5.53837   5.53861
  Beta virt. eigenvalues --    5.53889   5.54333   5.54402   5.54679   5.55485
  Beta virt. eigenvalues --    5.55770   5.56007   5.56718   5.56853   5.57203
  Beta virt. eigenvalues --    5.57483   5.58354   5.58562   5.59066   5.59819
  Beta virt. eigenvalues --    5.59857   5.60372   5.60883   5.61608   5.61655
  Beta virt. eigenvalues --    5.61925   5.62452   5.62506   5.62744   5.63285
  Beta virt. eigenvalues --    5.63992   5.64229   5.64327   5.64472   5.65148
  Beta virt. eigenvalues --    5.65507   5.65679   5.66100   5.66404   5.66556
  Beta virt. eigenvalues --    5.67124   5.67372   5.68125   5.68810   5.68911
  Beta virt. eigenvalues --    5.69758   5.70280   5.70432   5.71145   5.71472
  Beta virt. eigenvalues --    5.72004   5.72311   5.72541   5.73403   5.73856
  Beta virt. eigenvalues --    5.74529   5.74649   5.76207   5.76330   5.76520
  Beta virt. eigenvalues --    5.76985   5.77404   5.78361   5.80748   5.82598
  Beta virt. eigenvalues --    5.83879   5.84462   5.84565   5.84570   5.84613
  Beta virt. eigenvalues --    5.84696   5.85316   5.86904   5.87590   5.87648
  Beta virt. eigenvalues --    5.87957   5.88940   5.89894   5.92585   5.92721
  Beta virt. eigenvalues --    5.92965   5.93350   5.94954   5.96593   5.99724
  Beta virt. eigenvalues --    6.00539   6.01278   6.01387   6.01589   6.01763
  Beta virt. eigenvalues --    6.01855   6.01897   6.01912   6.02160   6.02530
  Beta virt. eigenvalues --    6.03188   6.04556   6.04798   6.05082   6.05573
  Beta virt. eigenvalues --    6.06324   6.09452   6.12824   6.14598   6.15042
  Beta virt. eigenvalues --    6.15137   6.15381   6.19305   6.19720   6.20576
  Beta virt. eigenvalues --    6.21000   6.21301   6.27307   6.30567   6.31772
  Beta virt. eigenvalues --    6.32934   6.33382   6.36041   6.36642   6.40991
  Beta virt. eigenvalues --    6.42101   6.42368   6.42970   6.43053   6.46787
  Beta virt. eigenvalues --    6.50889   6.56818   6.59320   6.60260   6.60434
  Beta virt. eigenvalues --    6.69746   6.70021   6.70039   6.70043   6.70082
  Beta virt. eigenvalues --    6.71108   6.72927   6.73214   6.74626   6.74929
  Beta virt. eigenvalues --    6.82912   6.83936   6.84002   6.84434   6.84501
  Beta virt. eigenvalues --    6.85898   6.91351   6.91415   6.91447   6.91482
  Beta virt. eigenvalues --    6.95520   6.95596   6.96984   6.98296   6.99552
  Beta virt. eigenvalues --    7.00142   7.00551   7.06097   7.06482   7.12934
  Beta virt. eigenvalues --    7.18588   7.22931   7.23259   7.25418   7.27617
  Beta virt. eigenvalues --    7.27687   7.27692   7.27738   7.27808   7.34892
  Beta virt. eigenvalues --    7.35104   7.41214   7.44870   7.44912   7.44980
  Beta virt. eigenvalues --    7.45020   7.49389   8.45503   8.48207   8.58361
  Beta virt. eigenvalues --    8.59597   8.81775   8.88748   8.92156   8.92522
  Beta virt. eigenvalues --    8.92936   9.01263  15.87898  22.83321  22.84230
  Beta virt. eigenvalues --   22.86168  22.86667  22.87027  22.91565  22.95501
  Beta virt. eigenvalues --   22.96135  22.98976  23.04336  23.07665  23.09246
  Beta virt. eigenvalues --   23.12063  23.13455  23.14403  23.15213  23.15605
  Beta virt. eigenvalues --   23.16078  23.16162  23.17403  23.17884  23.18441
  Beta virt. eigenvalues --   23.18786  23.19077  23.26307  23.26388  23.26689
  Beta virt. eigenvalues --   23.28364  23.28680  23.29023  23.29388  23.30156
  Beta virt. eigenvalues --   23.34167  23.34832  23.35238  23.35342  23.37781
  Beta virt. eigenvalues --   23.38320  23.38538  23.39908  23.40128  23.40333
  Beta virt. eigenvalues --   23.40980  23.41137  23.41352  23.47229  23.52483
  Beta virt. eigenvalues --   23.53705  23.57847  23.58093  23.59217  23.64462
  Beta virt. eigenvalues --   23.64481  23.64602  23.64616  23.70318  23.72705
  Beta virt. eigenvalues --   23.74293  23.76007  23.84215  23.85442  23.94698
  Beta virt. eigenvalues --   23.99807  24.00115  24.00929  24.01100  24.12311
  Beta virt. eigenvalues --   24.12971  24.23660  32.26998  33.13539  33.31212
  Beta virt. eigenvalues --   33.45410  33.45606  44.04399  44.16376  44.49082
  Beta virt. eigenvalues --   44.49165  44.49220  44.49220  57.39806  57.56700
          Condensed to atoms (all electrons):
          Atomic-Atomic Spin Densities.
 Mulliken charges and spin densities:
               1          2
     1  C   -0.316534  -0.000738
     2  C   -0.353518  -0.000900
     3  C   -0.008931  -0.012949
     4  C    0.069821   0.084130
     5  C   -0.443015  -0.010137
     6  C    0.036660  -0.030667
     7  C    0.154737   0.196410
     8  C    0.034167  -0.028667
     9  C    0.060965   0.086466
    10  C   -0.481019  -0.010027
    11  C    0.068124  -0.018567
    12  C   -0.388097   0.002278
    13  C   -0.308716  -0.001060
    14  C    0.008038   0.113316
    15  C   -0.245644  -0.037534
    16  C   -0.109711   0.034424
    17  C    0.001027  -0.009024
    18  C   -0.216350   0.009834
    19  C   -0.181734  -0.006298
    20  C    0.058132   0.008988
    21  C   -0.171706  -0.004715
    22  C   -0.124267   0.008665
    23  N   -0.107530   0.001733
    24  C   -0.045307  -0.000414
    25  C   -0.161386   0.000531
    26  C   -0.156518  -0.000275
    27  C    0.208966   0.000457
    28  O   -0.310714   0.000053
    29  C   -0.245706  -0.000005
    30  C   -0.165810  -0.000315
    31  C   -0.147677   0.000568
    32  C   -0.048800  -0.000420
    33  C   -0.163548   0.000506
    34  C   -0.155470  -0.000217
    35  C    0.208948   0.000394
    36  O   -0.311077   0.000046
    37  C   -0.245557  -0.000004
    38  C   -0.167265  -0.000271
    39  C   -0.150086   0.000432
    40  N   -0.121092   0.011745
    41  B    0.386298   0.002450
    42  F   -0.368120   0.000828
    43  F   -0.370066   0.000837
    44  N   -0.117007   0.013475
    45  C    0.071087   0.111611
    46  C   -0.295399  -0.039310
    47  C   -0.077064   0.039179
    48  C   -0.018187  -0.010941
    49  C   -0.125175   0.009567
    50  C   -0.174104  -0.005829
    51  C    0.029808   0.010479
    52  C   -0.135463  -0.006184
    53  C   -0.227446   0.012950
    54  N   -0.106947   0.002146
    55  C   -0.049637  -0.000460
    56  C   -0.135414   0.000498
    57  C   -0.168974  -0.000264
    58  C    0.210282   0.000471
    59  O   -0.310933   0.000058
    60  C   -0.246178  -0.000005
    61  C   -0.156614  -0.000349
    62  C   -0.175736   0.000591
    63  C   -0.055342  -0.000514
    64  C   -0.171110   0.000713
    65  C   -0.155011  -0.000371
    66  C    0.210422   0.000552
    67  O   -0.310728   0.000068
    68  C   -0.246225  -0.000006
    69  C   -0.169143  -0.000323
    70  C   -0.132829   0.000560
    71  C   -0.164093   0.028905
    72  C   -0.233656   0.019058
    73  C   -0.128065   0.039751
    74  C   -0.004851   0.038281
    75  C   -0.019693   0.101729
    76  C   -0.087794   0.114499
    77  C   -0.177253  -0.029056
    78  N   -0.105169   0.051384
    79  C    0.370822   0.007633
    80  O   -0.344403   0.002343
    81  O   -0.437170   0.039842
    82  C   -0.093845   0.016531
    83  C   -0.218711   0.044637
    84  H    0.122227  -0.000026
    85  H    0.112039  -0.000110
    86  H    0.114585  -0.000145
    87  H    0.134113   0.000051
    88  H    0.116066  -0.000023
    89  H    0.149334   0.004318
    90  H    0.152442   0.001965
    91  H    0.130303   0.000992
    92  H    0.153443   0.001487
    93  H    0.139528   0.001387
    94  H    0.151907   0.004176
    95  H    0.138575  -0.000221
    96  H    0.127949  -0.000845
    97  H    0.124906  -0.000223
    98  H    0.092161   0.000120
    99  H    0.129595  -0.000052
   100  H    0.154143   0.005163
   101  H    0.122748  -0.001925
   102  H    0.182694  -0.003432
   103  H    0.169848   0.000074
   104  H    0.170618   0.000031
   105  H    0.138283  -0.000183
   106  H    0.169216  -0.000018
   107  H    0.154153   0.000003
   108  H    0.147520  -0.000000
   109  H    0.144074   0.000005
   110  H    0.145238   0.000004
   111  H    0.155232   0.000010
   112  H    0.169016  -0.000099
   113  H    0.168659  -0.000024
   114  H    0.154047   0.000001
   115  H    0.144310   0.000005
   116  H    0.144859   0.000003
   117  H    0.147474  -0.000000
   118  H    0.156087   0.000010
   119  H    0.174704  -0.000052
   120  H    0.154672   0.005037
   121  H    0.116694  -0.002313
   122  H    0.137440  -0.000223
   123  H    0.170246   0.000079
   124  H    0.168520   0.000070
   125  H    0.192491  -0.004880
   126  H    0.168597  -0.000023
   127  H    0.156970   0.000003
   128  H    0.144393   0.000006
   129  H    0.145301   0.000006
   130  H    0.147507  -0.000000
   131  H    0.153655   0.000010
   132  H    0.175140  -0.000075
   133  H    0.172136  -0.000087
   134  H    0.153358   0.000012
   135  H    0.147471  -0.000000
   136  H    0.144584   0.000007
   137  H    0.145339   0.000006
   138  H    0.157040   0.000003
   139  H    0.168761  -0.000022
   140  H    0.183820  -0.002143
   141  H    0.152638  -0.002746
   142  H    0.130082  -0.006424
   143  H    0.263609  -0.000193
   144  H    0.142381  -0.001170
   145  H    0.183093  -0.003151
 Sum of Mulliken charges =  -1.00000   1.00000
 Mulliken charges and spin densities with hydrogens summed into heavy atoms:
               1          2
     1  C    0.032316  -0.001019
     2  C   -0.103339  -0.000872
     3  C   -0.008931  -0.012949
     4  C    0.069821   0.084130
     5  C   -0.010935  -0.002862
     6  C    0.036660  -0.030667
     7  C    0.154737   0.196410
     8  C    0.034167  -0.028667
     9  C    0.060965   0.086466
    10  C   -0.036140  -0.002976
    11  C    0.068124  -0.018567
    12  C   -0.121572   0.001212
    13  C    0.037946  -0.001215
    14  C    0.008038   0.113316
    15  C   -0.091501  -0.032371
    16  C    0.013037   0.032499
    17  C    0.001027  -0.009024
    18  C   -0.033655   0.006402
    19  C   -0.011885  -0.006225
    20  C    0.058132   0.008988
    21  C   -0.001088  -0.004684
    22  C    0.014016   0.008482
    23  N   -0.107530   0.001733
    24  C   -0.045307  -0.000414
    25  C    0.007830   0.000513
    26  C   -0.002365  -0.000272
    27  C    0.208966   0.000457
    28  O   -0.310714   0.000053
    29  C    0.191126   0.000004
    30  C   -0.010577  -0.000306
    31  C    0.021339   0.000469
    32  C   -0.048800  -0.000420
    33  C    0.005111   0.000482
    34  C   -0.001423  -0.000216
    35  C    0.208948   0.000394
    36  O   -0.311077   0.000046
    37  C    0.191087   0.000003
    38  C   -0.011178  -0.000262
    39  C    0.024618   0.000380
    40  N   -0.121092   0.011745
    41  B    0.386298   0.002450
    42  F   -0.368120   0.000828
    43  F   -0.370066   0.000837
    44  N   -0.117007   0.013475
    45  C    0.071087   0.111611
    46  C   -0.140727  -0.034273
    47  C    0.039630   0.036866
    48  C   -0.018187  -0.010941
    49  C    0.012265   0.009343
    50  C   -0.003858  -0.005750
    51  C    0.029808   0.010479
    52  C    0.033057  -0.006115
    53  C   -0.034955   0.008069
    54  N   -0.106947   0.002146
    55  C   -0.049637  -0.000460
    56  C    0.033183   0.000475
    57  C   -0.012004  -0.000261
    58  C    0.210282   0.000471
    59  O   -0.310933   0.000058
    60  C    0.191024   0.000006
    61  C   -0.002958  -0.000339
    62  C   -0.000596   0.000515
    63  C   -0.055342  -0.000514
    64  C    0.001026   0.000626
    65  C   -0.001654  -0.000359
    66  C    0.210422   0.000552
    67  O   -0.310728   0.000068
    68  C    0.191168   0.000007
    69  C   -0.012102  -0.000319
    70  C    0.035931   0.000538
    71  C   -0.164093   0.028905
    72  C   -0.049836   0.016916
    73  C    0.024573   0.037005
    74  C   -0.004851   0.038281
    75  C    0.110389   0.095305
    76  C   -0.087794   0.114499
    77  C   -0.177253  -0.029056
    78  N   -0.105169   0.051384
    79  C    0.370822   0.007633
    80  O   -0.080794   0.002150
    81  O   -0.437170   0.039842
    82  C    0.048537   0.015361
    83  C   -0.035618   0.041487
 Electronic spatial extent (au):  <R**2>=         151969.0287
 Charge=             -1.0000 electrons
 Dipole moment (field-independent basis, Debye):
    X=              4.4385    Y=            -12.6010    Z=             -0.2718  Tot=             13.3626
 Quadrupole moment (field-independent basis, Debye-Ang):
   XX=           -412.9251   YY=           -621.1931   ZZ=           -480.2326
   XY=             70.7520   XZ=             -5.5056   YZ=              7.6111
 Traceless Quadrupole moment (field-independent basis, Debye-Ang):
   XX=             91.8585   YY=           -116.4095   ZZ=             24.5510
   XY=             70.7520   XZ=             -5.5056   YZ=              7.6111
 Octapole moment (field-independent basis, Debye-Ang**2):
  XXX=          -1443.0350  YYY=          -1647.6731  ZZZ=              8.2981  XYY=            953.7281
  XXY=           -432.1520  XXZ=             84.5808  XZZ=            -25.9782  YZZ=              8.1070
  YYZ=           -202.6263  XYZ=             70.8250
 Hexadecapole moment (field-independent basis, Debye-Ang**3):
 XXXX=        -136408.5479 YYYY=         -57406.0089 ZZZZ=          -6163.1733 XXXY=           3310.1238
 XXXZ=          -1905.6737 YYYX=           4883.6121 YYYZ=           -742.0136 ZZZX=           -465.1324
 ZZZY=             87.9856 XXYY=         -29330.3446 XXZZ=         -25884.9683 YYZZ=          -8409.1636
 XXYZ=           3250.2892 YYXZ=           -464.2874 ZZXY=           -397.2884
 N-N= 1.245897498216D+04 E-N=-3.338474111089D+04  KE= 3.596575766739D+03
 Leave Link  601 at Thu Nov  6 09:00:23 2025, MaxMem= 30870077440 cpu:             253.1 elap:               4.6
 (Enter /public/software/gauss/g16/l9999.exe)
 1\1\GINC-CU043\SP\UM062X\def2TZVPP\C69H62B1F2N5O6(1-,2)\BAIDING\06-Nov
 -2025\0\\#p M062X/DEF2TZVPP scrf=(solvent=water) em=GD3\\Energy calcul
 ation for M100034662_reduced_sp\\-1,2\C,0,3.158778,0.052686,4.450142\C
 ,0,3.757956,0.223284,3.042651\C,0,2.716195,0.225318,1.954032\C,0,2.004
 525,1.347237,1.491262\C,0,2.195222,2.736698,2.028645\C,0,1.04672,0.875
 317,0.542697\C,0,0.075126,1.55447,-0.249232\C,0,-0.886751,0.800286,-0.
 98384\C,0,-1.860732,1.181434,-1.954625\C,0,-2.056077,2.513403,-2.62023
 5\C,0,-2.55952,0.014272,-2.322079\C,0,-3.631484,-0.081317,-3.377108\C,
 0,-4.937697,0.662219,-3.049963\C,0,-1.971383,-1.064321,-1.624962\C,0,-
 2.178007,-2.503353,-1.795553\C,0,-3.318695,-3.229672,-1.745139\C,0,-4.
 66681,-2.866967,-1.29801\C,0,-4.935992,-1.823935,-0.388631\C,0,-6.2245
 38,-1.561898,0.057206\C,0,-7.318806,-2.325337,-0.399279\C,0,-7.05993,-
 3.380386,-1.29522\C,0,-5.762849,-3.648219,-1.714948\N,0,-8.627992,-2.0
 45129,0.039378\C,0,-9.017077,-0.708085,0.353732\C,0,-9.714751,-0.42776
 6,1.533917\C,0,-10.126146,0.871527,1.839391\C,0,-9.820311,1.91925,0.96
 3858\O,0,-10.166999,3.232719,1.168057\C,0,-10.885004,3.555551,2.361438
 \C,0,-9.114074,1.649316,-0.217831\C,0,-8.727629,0.351028,-0.524012\C,0
 ,-9.594862,-3.087315,0.166382\C,0,-10.885297,-2.929762,-0.35159\C,0,-1
 1.85035,-3.92874,-0.20496\C,0,-11.521189,-5.11939,0.45208\O,0,-12.3869
 31,-6.168484,0.645517\C,0,-13.718047,-6.03644,0.140665\C,0,-10.227284,
 -5.290502,0.966376\C,0,-9.280376,-4.28322,0.834768\N,0,-0.948489,-0.58
 5084,-0.84453\B,0,0.116194,-1.460094,-0.155375\F,0,0.759071,-2.288945,
 -1.101306\F,0,-0.489669,-2.288102,0.814914\N,0,1.13794,-0.515095,0.506
 899\C,0,2.165603,-0.913945,1.326339\C,0,2.439905,-2.331746,1.552971\C,
 0,3.614009,-3.009783,1.571989\C,0,4.978091,-2.619473,1.210405\C,0,6.04
 4389,-3.459686,1.591857\C,0,7.36361,-3.175979,1.26248\C,0,7.681765,-2.
 035161,0.500667\C,0,6.621493,-1.201937,0.086648\C,0,5.309755,-1.485779
 ,0.438251\N,0,9.013456,-1.737623,0.152973\C,0,9.973082,-2.778283,-0.03
 2783\C,0,11.240218,-2.690942,0.567896\C,0,12.188987,-3.68562,0.368365\
 C,0,11.887373,-4.8037,-0.422794\O,0,12.888356,-5.735599,-0.551467\C,0,
 12.631235,-6.882704,-1.36533\C,0,10.625593,-4.906838,-1.019582\C,0,9.6
 85425,-3.891774,-0.830896\C,0,9.437382,-0.385552,-0.022502\C,0,9.13672
 2,0.594348,0.9309\C,0,9.551813,1.916988,0.762501\C,0,10.302467,2.27016
 9,-0.364736\O,0,10.76935,3.535511,-0.62542\C,0,10.469694,4.565872,0.31
 9597\C,0,10.6212,1.291806,-1.317878\C,0,10.186088,-0.016838,-1.152746\
 C,0,0.066272,3.017027,-0.311619\C,0,-1.096683,3.761526,0.009684\C,0,-1
 .112417,5.140827,-0.029021\C,0,0.038186,5.88075,-0.435696\C,0,0.125541
 ,7.297149,-0.534734\C,0,-0.795349,8.312647,-0.253252\C,0,-2.10676,8.10
 3606,0.245359\N,0,-3.193333,7.958613,0.657234\C,0,-0.473322,9.723095,-
 0.445765\O,0,0.775246,9.948798,-0.93607\O,0,-1.240923,10.656789,-0.198
 578\C,0,1.199206,5.122307,-0.774953\C,0,1.219069,3.746278,-0.697601\H,
 0,3.945346,0.060451,5.212862\H,0,2.453696,0.857143,4.684661\H,0,2.6198
 12,-0.897242,4.531086\H,0,4.327959,1.158371,3.00543\H,0,4.479764,-0.57
 7891,2.867785\H,0,2.857759,3.350837,1.407677\H,0,1.246665,3.273806,2.1
 05204\H,0,2.636009,2.695108,3.028284\H,0,-1.113002,3.055855,-2.72002\H
 ,0,-2.466156,2.368175,-3.624447\H,0,-2.746939,3.172361,-2.081906\H,0,-
 3.236799,0.318755,-4.321705\H,0,-3.853141,-1.135965,-3.564902\H,0,-5.6
 63845,0.532439,-3.860109\H,0,-5.390777,0.287078,-2.128049\H,0,-4.76873
 9,1.736191,-2.926069\H,0,-1.26637,-3.055629,-2.014459\H,0,-3.222313,-4
 .274135,-2.040171\H,0,-4.117188,-1.229643,0.002344\H,0,-6.388951,-0.76
 7283,0.776679\H,0,-7.878587,-3.990097,-1.661067\H,0,-5.592656,-4.47314
 5,-2.401981\H,0,-9.94527,-1.233181,2.223734\H,0,-10.66703,1.051732,2.7
 60418\H,0,-11.058832,4.631735,2.32316\H,0,-11.847636,3.033753,2.402275
 \H,0,-10.301542,3.313753,3.256748\H,0,-8.889988,2.467657,-0.89477\H,0,
 -8.196719,0.15369,-1.449749\H,0,-11.145398,-2.013881,-0.872322\H,0,-12
 .840349,-3.770867,-0.61523\H,0,-14.238897,-5.191123,0.604046\H,0,-13.7
 22306,-5.914201,-0.948141\H,0,-14.2298,-6.963657,0.402003\H,0,-9.98472
 1,-6.213929,1.482796\H,0,-8.288352,-4.421421,1.25216\H,0,1.547099,-2.9
 27787,1.728299\H,0,3.534019,-4.055149,1.868343\H,0,5.829958,-4.350166,
 2.17727\H,0,8.153854,-3.839138,1.5962\H,0,6.832104,-0.332384,-0.52603\
 H,0,4.523563,-0.828362,0.084096\H,0,11.481246,-1.835908,1.191042\H,0,1
 3.168748,-3.616996,0.830422\H,0,11.797206,-7.473802,-0.970988\H,0,12.4
 17576,-6.597426,-2.401385\H,0,13.543358,-7.480165,-1.335571\H,0,10.368
 828,-5.75594,-1.641201\H,0,8.715538,-3.972088,-1.31092\H,0,8.568514,0.
 325942,1.81562\H,0,9.298817,2.649821,1.51891\H,0,10.921242,5.475661,-0
 .07815\H,0,9.388605,4.711707,0.422108\H,0,10.902251,4.345298,1.301806\
 H,0,11.200084,1.576833,-2.190703\H,0,10.42775,-0.762263,-1.903348\H,0,
 -1.98795,3.228931,0.326378\H,0,-2.018024,5.65878,0.260503\H,0,1.083478
 ,7.662283,-0.89191\H,0,0.874254,10.913195,-1.01853\H,0,2.087189,5.6527
 29,-1.108496\H,0,2.119566,3.205076,-0.969874\\Version=ES64L-G16RevA.03
 \State=2-A\HF=-3616.5514583\S2=0.773336\S2-1=0.\S2A=0.75037\RMSD=2.973
 e-09\Dipole=1.7462281,-4.9576166,-0.1069279\Quadrupole=68.2945418,-86.
 5476006,18.2530588,52.6023772,-4.0932845,5.6586581\PG=C01 [X(C69H62B1F
 2N5O6)]\\@


 SUCCESS IS NEVER CERTAIN,
 FAILURE IS NEVER FINAL.
 Job cpu time:       5 days 10 hours 29 minutes 34.5 seconds.
 Elapsed time:       0 days  2 hours  3 minutes 49.3 seconds.
 File lengths (MBytes):  RWF=  12520 Int=      0 D2E=      0 Chk=    819 Scr=      1
 Normal termination of Gaussian 16 at Thu Nov  6 09:00:25 2025.
