 Entering Gaussian System, Link 0=g16
 Input=M97692510_sp.gjf
 Output=M97692510_sp.log
 Initial command:
 /public/software/gauss/g16/l1.exe "/public/home/baiding/1101_v2_sp/tmp_M97692510_sp_1575143/Gau-1481102.inp" -scrdir="/public/home/baiding/1101_v2_sp/tmp_M97692510_sp_1575143/"
 Entering Link 1 = /public/software/gauss/g16/l1.exe PID=   1481103.
  
 Copyright (c) 1988,1990,1992,1993,1995,1998,2003,2009,2016,
            Gaussian, Inc.  All Rights Reserved.
  
 This is part of the Gaussian(R) 16 program.  It is based on
 the Gaussian(R) 09 system (copyright 2009, Gaussian, Inc.),
 the Gaussian(R) 03 system (copyright 2003, Gaussian, Inc.),
 the Gaussian(R) 98 system (copyright 1998, Gaussian, Inc.),
 the Gaussian(R) 94 system (copyright 1995, Gaussian, Inc.),
 the Gaussian 92(TM) system (copyright 1992, Gaussian, Inc.),
 the Gaussian 90(TM) system (copyright 1990, Gaussian, Inc.),
 the Gaussian 88(TM) system (copyright 1988, Gaussian, Inc.),
 the Gaussian 86(TM) system (copyright 1986, Carnegie Mellon
 University), and the Gaussian 82(TM) system (copyright 1983,
 Carnegie Mellon University). Gaussian is a federally registered
 trademark of Gaussian, Inc.
  
 This software contains proprietary and confidential information,
 including trade secrets, belonging to Gaussian, Inc.
  
 This software is provided under written license and may be
 used, copied, transmitted, or stored only in accord with that
 written license.
  
 The following legend is applicable only to US Government
 contracts under FAR:
  
                    RESTRICTED RIGHTS LEGEND
  
 Use, reproduction and disclosure by the US Government is
 subject to restrictions as set forth in subparagraphs (a)
 and (c) of the Commercial Computer Software - Restricted
 Rights clause in FAR 52.227-19.
  
 Gaussian, Inc.
 340 Quinnipiac St., Bldg. 40, Wallingford CT 06492
  
  
 ---------------------------------------------------------------
 Warning -- This program may not be used in any manner that
 competes with the business of Gaussian, Inc. or will provide
 assistance to any competitor of Gaussian, Inc.  The licensee
 of this program is prohibited from giving any competitor of
 Gaussian, Inc. access to this program.  By using this program,
 the user acknowledges that Gaussian, Inc. is engaged in the
 business of creating and licensing software in the field of
 computational chemistry and represents and warrants to the
 licensee that it is not a competitor of Gaussian, Inc. and that
 it will not use this program in any manner prohibited above.
 ---------------------------------------------------------------
  

 Cite this work as:
 Gaussian 16, Revision A.03,
 M. J. Frisch, G. W. Trucks, H. B. Schlegel, G. E. Scuseria, 
 M. A. Robb, J. R. Cheeseman, G. Scalmani, V. Barone, 
 G. A. Petersson, H. Nakatsuji, X. Li, M. Caricato, A. V. Marenich, 
 J. Bloino, B. G. Janesko, R. Gomperts, B. Mennucci, H. P. Hratchian, 
 J. V. Ortiz, A. F. Izmaylov, J. L. Sonnenberg, D. Williams-Young, 
 F. Ding, F. Lipparini, F. Egidi, J. Goings, B. Peng, A. Petrone, 
 T. Henderson, D. Ranasinghe, V. G. Zakrzewski, J. Gao, N. Rega, 
 G. Zheng, W. Liang, M. Hada, M. Ehara, K. Toyota, R. Fukuda, 
 J. Hasegawa, M. Ishida, T. Nakajima, Y. Honda, O. Kitao, H. Nakai, 
 T. Vreven, K. Throssell, J. A. Montgomery, Jr., J. E. Peralta, 
 F. Ogliaro, M. J. Bearpark, J. J. Heyd, E. N. Brothers, K. N. Kudin, 
 V. N. Staroverov, T. A. Keith, R. Kobayashi, J. Normand, 
 K. Raghavachari, A. P. Rendell, J. C. Burant, S. S. Iyengar, 
 J. Tomasi, M. Cossi, J. M. Millam, M. Klene, C. Adamo, R. Cammi, 
 J. W. Ochterski, R. L. Martin, K. Morokuma, O. Farkas, 
 J. B. Foresman, and D. J. Fox, Gaussian, Inc., Wallingford CT, 2016.
 
 ******************************************
 Gaussian 16:  ES64L-G16RevA.03 25-Dec-2016
                 8-Nov-2025 
 ******************************************
 %nprocshared=64
 Will use up to   64 processors via shared memory.
 %mem=230GB
 %chk=M97692510_sp.chk
 ----------------------------------------------
 #p M062X/DEF2TZVPP scrf=(solvent=water) em=GD3
 ----------------------------------------------
 1/38=1,172=1/1;
 2/12=2,17=6,18=5,40=1/2;
 3/5=44,7=202,11=2,25=1,30=1,70=2201,72=1,74=-55,124=31/1,2,3;
 4//1;
 5/5=2,38=5,53=1/2;
 6/7=2,8=2,9=2,10=2,28=1/1;
 99/5=1,9=1/99;
 Leave Link    1 at Sat Nov  8 10:25:04 2025, MaxMem= 30870077440 cpu:              16.5 elap:               0.3
 (Enter /public/software/gauss/g16/l101.exe)
 --------------------------------
 Energy calculation for M97692510
 --------------------------------
 Symbolic Z-matrix:
 Charge =  0 Multiplicity = 1
 C                     2.92853  -2.543    -0.02994 
 C                     2.53833  -1.10577  -0.00519 
 C                     3.39676   0.02542  -0.01512 
 C                     4.89404  -0.0516   -0.04283 
 C                     2.58626   1.16234  -0.00303 
 C                     3.04454   2.58748  -0.00597 
 C                     1.23197   0.69254   0.01127 
 N                     1.24773  -0.70143   0.01039 
 B                     0.00001  -1.62613   0.03441 
 F                     0.00009  -2.46779  -1.08272 
 F                    -0.00006  -2.40367   1.20212 
 N                    -1.24774  -0.70146   0.01019 
 C                    -2.53832  -1.10577  -0.00532 
 C                    -2.92857  -2.54297  -0.03033 
 C                    -3.39676   0.02546  -0.01508 
 C                    -4.89404  -0.05163  -0.04279 
 C                    -2.58626   1.16234  -0.00287 
 C                    -3.04453   2.58749  -0.00566 
 C                    -1.23196   0.69254   0.01122 
 C                    -0.00001   1.36793   0.01589 
 C                     0.        2.79949   0.01569 
 N                    -0.00002   3.96415   0.01631 
 H                     2.74803  -2.9759   -1.02116 
 H                     3.98812  -2.65769   0.20363 
 H                     2.33996  -3.11965   0.68827 
 H                     5.25651  -0.49271  -0.97883 
 H                     5.34934   0.93626   0.0533 
 H                     5.277    -0.67335   0.77405 
 H                     2.68259   3.12734  -0.88732 
 H                     2.68443   3.13063   0.8739 
 H                     4.13464   2.64072  -0.00798 
 H                    -2.74851  -2.97552  -1.02179 
 H                    -2.33973  -3.11988   0.68745 
 H                    -3.98806  -2.65772   0.20363 
 H                    -5.25648  -0.49243  -0.97894 
 H                    -5.27693  -0.67369   0.77388 
 H                    -5.34941   0.93616   0.05371 
 H                    -2.68348   3.12711  -0.88756 
 H                    -4.13463   2.64073  -0.00657 
 H                    -2.68349   3.13086   0.87367 
 
 ITRead=  0  0  0  0  0  0  0  0  0  0  0  0  0  0  0  0  0  0  0  0
 ITRead=  0  0  0  0  0  0  0  0  0  0  0  0  0  0  0  0  0  0  0  0
 MicOpt= -1 -1 -1 -1 -1 -1 -1 -1 -1 -1 -1 -1 -1 -1 -1 -1 -1 -1 -1 -1
 MicOpt= -1 -1 -1 -1 -1 -1 -1 -1 -1 -1 -1 -1 -1 -1 -1 -1 -1 -1 -1 -1
 NAtoms=     40 NQM=       40 NQMF=       0 NMMI=      0 NMMIF=      0
                NMic=       0 NMicF=      0.
                    Isotopes and Nuclear Properties:
 (Nuclear quadrupole moments (NQMom) in fm**2, nuclear magnetic moments (NMagM)
  in nuclear magnetons)

  Atom         1           2           3           4           5           6           7           8           9          10
 IAtWgt=          12          12          12          12          12          12          12          14          11          19
 AtmWgt=  12.0000000  12.0000000  12.0000000  12.0000000  12.0000000  12.0000000  12.0000000  14.0030740  11.0093053  18.9984033
 NucSpn=           0           0           0           0           0           0           0           2           3           1
 AtZEff=  -0.0000000  -0.0000000  -0.0000000  -0.0000000  -0.0000000  -0.0000000  -0.0000000  -0.0000000  -0.0000000  -0.0000000
 NQMom=    0.0000000   0.0000000   0.0000000   0.0000000   0.0000000   0.0000000   0.0000000   2.0440000   4.0590000   0.0000000
 NMagM=    0.0000000   0.0000000   0.0000000   0.0000000   0.0000000   0.0000000   0.0000000   0.4037610   2.6886370   2.6288670
 AtZNuc=   6.0000000   6.0000000   6.0000000   6.0000000   6.0000000   6.0000000   6.0000000   7.0000000   5.0000000   9.0000000

  Atom        11          12          13          14          15          16          17          18          19          20
 IAtWgt=          19          14          12          12          12          12          12          12          12          12
 AtmWgt=  18.9984033  14.0030740  12.0000000  12.0000000  12.0000000  12.0000000  12.0000000  12.0000000  12.0000000  12.0000000
 NucSpn=           1           2           0           0           0           0           0           0           0           0
 AtZEff=  -0.0000000  -0.0000000  -0.0000000  -0.0000000  -0.0000000  -0.0000000  -0.0000000  -0.0000000  -0.0000000  -0.0000000
 NQMom=    0.0000000   2.0440000   0.0000000   0.0000000   0.0000000   0.0000000   0.0000000   0.0000000   0.0000000   0.0000000
 NMagM=    2.6288670   0.4037610   0.0000000   0.0000000   0.0000000   0.0000000   0.0000000   0.0000000   0.0000000   0.0000000
 AtZNuc=   9.0000000   7.0000000   6.0000000   6.0000000   6.0000000   6.0000000   6.0000000   6.0000000   6.0000000   6.0000000

  Atom        21          22          23          24          25          26          27          28          29          30
 IAtWgt=          12          14           1           1           1           1           1           1           1           1
 AtmWgt=  12.0000000  14.0030740   1.0078250   1.0078250   1.0078250   1.0078250   1.0078250   1.0078250   1.0078250   1.0078250
 NucSpn=           0           2           1           1           1           1           1           1           1           1
 AtZEff=  -0.0000000  -0.0000000  -0.0000000  -0.0000000  -0.0000000  -0.0000000  -0.0000000  -0.0000000  -0.0000000  -0.0000000
 NQMom=    0.0000000   2.0440000   0.0000000   0.0000000   0.0000000   0.0000000   0.0000000   0.0000000   0.0000000   0.0000000
 NMagM=    0.0000000   0.4037610   2.7928460   2.7928460   2.7928460   2.7928460   2.7928460   2.7928460   2.7928460   2.7928460
 AtZNuc=   6.0000000   7.0000000   1.0000000   1.0000000   1.0000000   1.0000000   1.0000000   1.0000000   1.0000000   1.0000000

  Atom        31          32          33          34          35          36          37          38          39          40
 IAtWgt=           1           1           1           1           1           1           1           1           1           1
 AtmWgt=   1.0078250   1.0078250   1.0078250   1.0078250   1.0078250   1.0078250   1.0078250   1.0078250   1.0078250   1.0078250
 NucSpn=           1           1           1           1           1           1           1           1           1           1
 AtZEff=  -0.0000000  -0.0000000  -0.0000000  -0.0000000  -0.0000000  -0.0000000  -0.0000000  -0.0000000  -0.0000000  -0.0000000
 NQMom=    0.0000000   0.0000000   0.0000000   0.0000000   0.0000000   0.0000000   0.0000000   0.0000000   0.0000000   0.0000000
 NMagM=    2.7928460   2.7928460   2.7928460   2.7928460   2.7928460   2.7928460   2.7928460   2.7928460   2.7928460   2.7928460
 AtZNuc=   1.0000000   1.0000000   1.0000000   1.0000000   1.0000000   1.0000000   1.0000000   1.0000000   1.0000000   1.0000000
 Leave Link  101 at Sat Nov  8 10:25:04 2025, MaxMem= 30870077440 cpu:               3.5 elap:               0.1
 (Enter /public/software/gauss/g16/l202.exe)
                          Input orientation:                          
 ---------------------------------------------------------------------
 Center     Atomic      Atomic             Coordinates (Angstroms)
 Number     Number       Type             X           Y           Z
 ---------------------------------------------------------------------
      1          6           0        2.928528   -2.542997   -0.029943
      2          6           0        2.538326   -1.105773   -0.005193
      3          6           0        3.396759    0.025420   -0.015117
      4          6           0        4.894043   -0.051602   -0.042827
      5          6           0        2.586258    1.162339   -0.003030
      6          6           0        3.044545    2.587481   -0.005965
      7          6           0        1.231974    0.692538    0.011271
      8          7           0        1.247729   -0.701434    0.010394
      9          5           0        0.000008   -1.626126    0.034413
     10          9           0        0.000094   -2.467790   -1.082723
     11          9           0       -0.000061   -2.403666    1.202124
     12          7           0       -1.247741   -0.701462    0.010191
     13          6           0       -2.538315   -1.105765   -0.005318
     14          6           0       -2.928566   -2.542972   -0.030332
     15          6           0       -3.396761    0.025462   -0.015078
     16          6           0       -4.894040   -0.051633   -0.042792
     17          6           0       -2.586257    1.162338   -0.002867
     18          6           0       -3.044533    2.587493   -0.005662
     19          6           0       -1.231959    0.692539    0.011223
     20          6           0       -0.000005    1.367930    0.015890
     21          6           0        0.000000    2.799490    0.015693
     22          7           0       -0.000019    3.964145    0.016311
     23          1           0        2.748033   -2.975901   -1.021162
     24          1           0        3.988115   -2.657688    0.203625
     25          1           0        2.339958   -3.119652    0.688274
     26          1           0        5.256508   -0.492705   -0.978828
     27          1           0        5.349344    0.936255    0.053298
     28          1           0        5.276999   -0.673349    0.774049
     29          1           0        2.682594    3.127344   -0.887324
     30          1           0        2.684427    3.130630    0.873899
     31          1           0        4.134640    2.640718   -0.007983
     32          1           0       -2.748512   -2.975515   -1.021791
     33          1           0       -2.339729   -3.119883    0.687449
     34          1           0       -3.988062   -2.657716    0.203627
     35          1           0       -5.256478   -0.492432   -0.978944
     36          1           0       -5.276927   -0.673689    0.773879
     37          1           0       -5.349408    0.936159    0.053711
     38          1           0       -2.683482    3.127107   -0.887556
     39          1           0       -4.134629    2.640729   -0.006567
     40          1           0       -2.683493    3.130864    0.873671
 ---------------------------------------------------------------------
                    Distance matrix (angstroms):
                    1          2          3          4          5
     1  C    0.000000
     2  C    1.489457   0.000000
     3  C    2.610790   1.420072   0.000000
     4  C    3.173399   2.581104   1.499520   0.000000
     5  C    3.721208   2.268619   1.396296   2.607893   0.000000
     6  C    5.131846   3.727785   2.586174   3.222850   1.497019
     7  C    3.653585   2.222780   2.265400   3.737301   1.433528
     8  N    2.493605   1.352543   2.268766   3.704149   2.294666
     9  B    3.069369   2.591408   3.777297   5.141660   3.803371
    10  F    3.112833   3.075513   4.346632   5.556085   4.586046
    11  F    3.180257   3.096054   4.349772   5.570849   4.567038
    12  N    4.564437   3.807625   4.701104   6.176297   4.263036
    13  C    5.652664   5.076641   6.041918   7.506838   5.604065
    14  C    5.857094   5.652706   6.826903   8.209768   6.644047
    15  C    6.826894   6.041941   6.793520   8.291209   6.090086
    16  C    8.209728   7.506843   8.291203   9.788083   7.578269
    17  C    6.644027   5.604077   6.090091   7.578267   5.172515
    18  C    7.874006   6.693917   6.932139   8.365835   5.808346
    19  C    5.270677   4.177229   4.676620   6.171270   3.847037
    20  C    4.886078   3.544401   3.652574   5.096099   2.594491
    21  C    6.092662   4.657748   4.385702   5.664257   3.060938
    22  N    7.135925   5.669896   5.201216   6.331000   3.813046
    23  H    1.096585   2.138586   3.231238   3.756863   4.264715
    24  H    1.091069   2.133995   2.756196   2.770041   4.074373
    25  H    1.093061   2.139148   3.391617   4.058422   4.344423
    26  H    3.244005   2.951666   2.157744   1.096381   3.289618
    27  H    4.239395   3.474928   2.155664   1.091971   2.772892
    28  H    3.107620   2.880024   2.155543   1.095678   3.348685
    29  H    5.740066   4.326459   3.300410   3.963506   2.156966
    30  H    5.750353   4.329118   3.307582   3.981129   2.157038
    31  H    5.322226   4.072397   2.717407   2.797587   2.140821
    32  H    5.779240   5.699128   6.912551   8.241134   6.827846
    33  H    5.348082   5.322764   6.579804   7.891458   6.563500
    34  H    6.921483   6.711622   7.860194   9.259825   7.606393
    35  H    8.491157   7.879299   8.722135  10.203123   8.074601
    36  H    8.453989   7.865865   8.737511  10.222653   8.111983
    37  H    8.979741   8.147963   8.793726  10.291418   7.939091
    38  H    8.023730   6.779610   6.881202   8.260547   5.693229
    39  H    8.761264   7.652752   7.972560   9.421618   6.881568
    40  H    8.031438   6.781511   6.884998   8.269650   5.693327
                    6          7          8          9         10
     6  C    0.000000
     7  C    2.622312   0.000000
     8  N    3.747770   1.394061   0.000000
     9  B    5.198588   2.625734   1.553203   0.000000
    10  F    5.998654   3.563990   2.423120   1.398711   0.000000
    11  F    5.969979   3.538717   2.423797   1.402896   2.285747
    12  N    5.407506   2.844683   2.495470   1.553212   2.423111
    13  C    6.693907   4.177230   3.807605   2.591416   3.075619
    14  C    7.874020   5.270707   4.564467   3.069421   3.112913
    15  C    6.932132   4.676630   4.701097   3.777331   4.346814
    16  C    8.365848   6.171285   6.176277   5.141663   5.556241
    17  C    5.808354   3.847051   4.263012   3.803378   4.586189
    18  C    6.089078   4.677569   5.407477   5.198598   5.998808
    19  C    4.677562   2.463933   2.844647   2.625736   3.564036
    20  C    3.279797   1.404973   2.416431   2.994113   3.989950
    21  C    3.051995   2.440702   3.716628   4.425656   5.380591
    22  N    3.341417   3.495890   4.829548   5.590300   6.525156
    23  H    5.663017   4.101438   2.913455   3.238483   2.795199
    24  H    5.333484   4.342502   3.372534   4.122833   4.194647
    25  H    5.792217   4.027251   2.738661   2.851933   3.006047
    26  H    3.914944   4.310681   4.134300   5.471937   5.616195
    27  H    2.835870   4.124791   4.416686   5.931404   6.441470
    28  H    4.028062   4.337016   4.101094   5.413084   5.874806
    29  H    1.095105   2.973222   4.186201   5.535462   6.208020
    30  H    1.094923   2.966149   4.182638   5.526081   6.509710
    31  H    1.091396   3.495890   4.416398   5.941627   6.659309
    32  H    8.095575   5.510544   4.712408   3.238947   2.795770
    33  H    7.876880   5.267716   4.379173   2.851690   3.005579
    34  H    8.775738   6.205641   5.592664   4.122804   4.194777
    35  H    8.907274   6.669684   6.582339   5.472001   5.616436
    36  H    8.971638   6.694321   6.569232   5.412946   5.874753
    37  H    8.555050   6.586026   6.797485   5.931436   6.441702
    38  H    5.820541   4.697426   5.560437   5.535736   6.208264
    39  H    7.179371   5.709308   6.335623   5.941629   6.659656
    40  H    5.820605   4.692553   5.557541   5.525802   6.509535
                   11         12         13         14         15
    11  F    0.000000
    12  N    2.423821   0.000000
    13  C    3.095997   1.352510   0.000000
    14  C    3.180329   2.493587   1.489458   0.000000
    15  C    4.349691   2.268776   1.420105   2.610803   0.000000
    16  C    5.570719   3.704130   2.581093   3.173328   1.499519
    17  C    4.566924   2.294678   2.268611   3.721190   1.396264
    18  C    5.969860   3.747791   3.727789   5.131835   2.586147
    19  C    3.538687   1.394091   2.222777   3.653592   2.265403
    20  C    3.953743   2.416456   3.544381   4.886078   3.652551
    21  C    5.336708   3.716659   4.657736   6.092661   4.385677
    22  N    6.477281   4.829569   5.669868   7.135905   5.201160
    23  H    3.580848   4.712003   5.698669   5.778663   6.912227
    24  H    4.119111   5.592712   6.711662   6.921587   7.860249
    25  H    2.500473   4.379386   5.323003   5.348486   6.579999
    26  H    6.003319   6.582324   7.879266   8.491094   8.722177
    27  H    6.410227   6.797463   8.147911   8.979744   8.793667
    28  H    5.569974   6.569361   7.865973   8.454219   8.737572
    29  H    6.492650   5.559930   6.779014   8.023219   6.880483
    30  H    6.159760   5.558135   6.782116   8.032004   6.885724
    31  H    6.633696   6.335655   7.652743   8.761280   7.972554
    32  H    3.581451   2.913523   2.138543   1.096587   3.231031
    33  H    2.500381   2.738590   2.139167   1.093053   3.391763
    34  H    4.118943   3.372493   2.134005   1.091070   2.756250
    35  H    6.003315   4.134254   2.951700   3.244033   2.157730
    36  H    5.569697   4.101016   2.879902   3.107374   2.155525
    37  H    6.410054   4.416715   3.474936   4.239327   2.155674
    38  H    6.492839   4.186316   4.326271   5.739747   3.300028
    39  H    6.633363   4.416406   4.072399   5.322209   2.717378
    40  H    6.159522   4.182548   4.329287   5.750626   3.307892
                   16         17         18         19         20
    16  C    0.000000
    17  C    2.607908   0.000000
    18  C    3.222893   1.497028   0.000000
    19  C    3.737318   1.433539   2.622320   0.000000
    20  C    5.096095   2.594479   3.279779   1.404950   0.000000
    21  C    5.664270   3.060937   3.051980   2.440694   1.431560
    22  N    6.330988   3.813019   3.341365   3.495870   2.596215
    23  H    8.240742   6.827635   8.095456   5.510318   5.243668
    24  H    9.259855   7.606419   8.775754   6.205660   5.669739
    25  H    7.891636   6.563590   7.876915   5.267807   5.105479
    26  H   10.203153   8.074691   8.907410   6.669723   5.664129
    27  H   10.291359   7.939020   8.554954   6.585948   5.366868
    28  H   10.222710   8.111975   8.971563   6.694333   5.708625
    29  H    8.259813   5.692478   5.819686   4.696742   3.332817
    30  H    8.270446   5.694120   5.821478   4.693248   3.324074
    31  H    9.421626   6.881576   7.179371   5.709304   4.326182
    32  H    3.756437   4.264547   5.662791   4.101423   5.243719
    33  H    4.058561   4.344506   5.792348   4.027282   5.105464
    34  H    2.770052   4.074372   5.333504   4.342503   5.669715
    35  H    1.096378   3.289540   3.914833   4.310608   5.664022
    36  H    1.095677   3.348736   4.028222   4.337048   5.708648
    37  H    1.091973   2.772970   2.835997   4.124869   5.366933
    38  H    3.962901   2.156953   1.095116   2.973524   3.333462
    39  H    2.797647   2.140820   1.091396   3.495891   4.326157
    40  H    3.981797   2.157051   1.094910   2.965838   3.323377
                   21         22         23         24         25
    21  C    0.000000
    22  N    1.164655   0.000000
    23  H    6.479344   7.536072   0.000000
    24  H    6.761743   7.732333   1.771769   0.000000
    25  H    6.400313   7.490474   1.763338   1.778965   0.000000
    26  H    6.281600   6.963109   3.529944   2.773836   4.264545
    27  H    5.664675   6.146964   4.819362   3.846033   5.090185
    28  H    6.362581   7.065935   3.862667   2.433969   3.823345
    29  H    2.849428   2.951814   6.105063   6.030021   6.451734
    30  H    2.837661   2.938785   6.394140   5.971055   6.262519
    31  H    4.137755   4.341365   5.873297   5.304654   6.073510
    32  H    6.479304   7.535964   5.496545   6.854546   5.370067
    33  H    6.400357   7.490535   5.368930   6.363122   4.679687
    34  H    6.761735   7.732310   6.853928   7.976177   6.363341
    35  H    6.281450   6.962900   8.381026   9.568140   8.209004
    36  H    6.362686   7.066058   8.539458   9.492231   8.000438
    37  H    5.664770   6.147037   9.056937  10.006375   8.716572
    38  H    2.850310   2.952724   8.171041   8.897457   8.169467
    39  H    4.137736   4.341308   8.941307   9.700329   8.693967
    40  H    2.836736   2.937764   8.389544   8.858140   8.021121
                   26         27         28         29         30
    26  H    0.000000
    27  H    1.765171   0.000000
    28  H    1.762280   1.765089   0.000000
    29  H    4.442765   3.577317   4.892480   0.000000
    30  H    4.814224   3.548302   4.604526   1.761227   0.000000
    31  H    3.466910   2.093909   3.591601   1.765923   1.766592
    32  H    8.381321   9.057209   8.540131   8.170672   8.390201
    33  H    8.208615   8.716435   8.000473   8.168934   8.021585
    34  H    9.568048  10.006317   9.492336   8.896895   8.858686
    35  H   10.512986  10.751285  10.679881   8.725826   8.922868
    36  H   10.679794  10.771666  10.553926   8.975601   8.824172
    37  H   10.751430  10.698752  10.771719   8.378538   8.368448
    38  H    8.726672   8.379220   8.976283   5.366076   5.649529
    39  H    9.947721   9.636107  10.008557   6.891085   6.893094
    40  H    8.922198   8.367544   8.823344   5.647655   5.367920
                   31         32         33         34         35
    31  H    0.000000
    32  H    8.941346   0.000000
    33  H    8.693998   1.763362   0.000000
    34  H    9.700333   1.771759   1.778956   0.000000
    35  H    9.947487   3.529509   4.264714   2.774132   0.000000
    36  H   10.008706   3.862087   3.823410   2.433665   1.762288
    37  H    9.636207   4.818979   5.090311   3.845995   1.765187
    38  H    6.891807   6.104445   6.451642   6.029659   4.441815
    39  H    8.269269   5.873176   6.073547   5.304638   3.467097
    40  H    6.892350   6.394128   6.262962   5.971475   4.814635
                   36         37         38         39         40
    36  H    0.000000
    37  H    1.765080   0.000000
    38  H    4.892073   3.576786   0.000000
    39  H    3.591561   2.094011   1.765937   0.000000
    40  H    4.605484   3.549108   1.761231   1.766592   0.000000
 Stoichiometry    C16H18BF2N3
 Framework group  C1[X(C16H18BF2N3)]
 Deg. of freedom   114
 Full point group                 C1      NOp   1
 Largest Abelian subgroup         C1      NOp   1
 Largest concise Abelian subgroup C1      NOp   1
                         Standard orientation:                         
 ---------------------------------------------------------------------
 Center     Atomic      Atomic             Coordinates (Angstroms)
 Number     Number       Type             X           Y           Z
 ---------------------------------------------------------------------
      1          6           0        2.928528   -2.542997   -0.029943
      2          6           0        2.538326   -1.105773   -0.005193
      3          6           0        3.396759    0.025420   -0.015117
      4          6           0        4.894043   -0.051602   -0.042827
      5          6           0        2.586258    1.162339   -0.003030
      6          6           0        3.044545    2.587481   -0.005965
      7          6           0        1.231974    0.692538    0.011271
      8          7           0        1.247729   -0.701434    0.010394
      9          5           0        0.000008   -1.626126    0.034413
     10          9           0        0.000094   -2.467790   -1.082723
     11          9           0       -0.000061   -2.403666    1.202124
     12          7           0       -1.247741   -0.701462    0.010191
     13          6           0       -2.538315   -1.105765   -0.005318
     14          6           0       -2.928566   -2.542972   -0.030332
     15          6           0       -3.396761    0.025462   -0.015078
     16          6           0       -4.894040   -0.051633   -0.042792
     17          6           0       -2.586257    1.162338   -0.002867
     18          6           0       -3.044533    2.587493   -0.005662
     19          6           0       -1.231959    0.692539    0.011223
     20          6           0       -0.000005    1.367930    0.015890
     21          6           0       -0.000000    2.799490    0.015693
     22          7           0       -0.000019    3.964145    0.016311
     23          1           0        2.748033   -2.975901   -1.021162
     24          1           0        3.988115   -2.657688    0.203625
     25          1           0        2.339958   -3.119652    0.688274
     26          1           0        5.256508   -0.492705   -0.978828
     27          1           0        5.349344    0.936255    0.053298
     28          1           0        5.276999   -0.673349    0.774049
     29          1           0        2.682594    3.127344   -0.887324
     30          1           0        2.684427    3.130630    0.873899
     31          1           0        4.134640    2.640718   -0.007983
     32          1           0       -2.748512   -2.975515   -1.021791
     33          1           0       -2.339729   -3.119883    0.687449
     34          1           0       -3.988062   -2.657716    0.203627
     35          1           0       -5.256478   -0.492432   -0.978944
     36          1           0       -5.276927   -0.673689    0.773879
     37          1           0       -5.349408    0.936159    0.053711
     38          1           0       -2.683482    3.127107   -0.887556
     39          1           0       -4.134629    2.640729   -0.006567
     40          1           0       -2.683493    3.130864    0.873671
 ---------------------------------------------------------------------
 Rotational constants (GHZ):           0.4350505           0.2494737           0.1646742
 Leave Link  202 at Sat Nov  8 10:25:04 2025, MaxMem= 30870077440 cpu:               0.3 elap:               0.0
 (Enter /public/software/gauss/g16/l301.exe)
 Standard basis: def2TZVPP (5D, 7F)
 Ernie: Thresh=  0.10000D-02 Tol=  0.10000D-05 Strict=F.
 There are  1062 symmetry adapted cartesian basis functions of A   symmetry.
 There are   934 symmetry adapted basis functions of A   symmetry.
   934 basis functions,  1428 primitive gaussians,  1062 cartesian basis functions
    79 alpha electrons       79 beta electrons
       nuclear repulsion energy      1832.5380518420 Hartrees.
 IExCor= 4336 DFT=T Ex+Corr=M062X ExCW=0 ScaHFX=  0.540000
 ScaDFX=  1.000000  1.000000  1.000000  1.000000 ScalE2=  1.000000  1.000000
 IRadAn=      5 IRanWt=     -1 IRanGd=            0 ICorTp=0 IEmpDi=131
 NAtoms=   40 NActive=   40 NUniq=   40 SFac= 1.00D+00 NAtFMM=   60 NAOKFM=F Big=F
 Integral buffers will be    131072 words long.
 Raffenetti 2 integral format.
 Two-electron integral symmetry is turned on.
 R6Disp:  Grimme-D3 Dispersion energy=       -0.0025344005 Hartrees.
 Nuclear repulsion after empirical dispersion term =     1832.5355174415 Hartrees.
 ------------------------------------------------------------------------------
 Polarizable Continuum Model (PCM)
 =================================
 Model                : PCM.
 Atomic radii         : UFF (Universal Force Field).
 Polarization charges : Total charges.
 Charge compensation  : None.
 Solution method      : On-the-fly selection.
 Cavity type          : Scaled VdW (van der Waals Surface) (Alpha=1.100).
 Cavity algorithm     : GePol (No added spheres)
                        Default sphere list used, NSphG=   40.
                        Lebedev-Laikov grids with approx.  5.0 points / Ang**2.
                        Smoothing algorithm: York/Karplus (Gamma=1.0000).
                        Polarization charges: spherical gaussians, with
                                              point-specific exponents (IZeta= 3).
                        Self-potential: point-specific (ISelfS= 7).
                        Self-field    : sphere-specific E.n sum rule (ISelfD= 2).
 Solvent              : Water, Eps=  78.355300 Eps(inf)=   1.777849
 ------------------------------------------------------------------------------
 GePol: Number of generator spheres                  =      40
 GePol: Total number of spheres                      =      40
 GePol: Number of exposed spheres                    =      40 (100.00%)
 GePol: Number of points                             =    2879
 GePol: Average weight of points                     =       0.13
 GePol: Minimum weight of points                     =   0.61D-10
 GePol: Maximum weight of points                     =    0.20577
 GePol: Number of points with low weight             =     193
 GePol: Fraction of low-weight points (<1% of avg)   =       6.70%
 GePol: Cavity surface area                          =    365.261 Ang**2
 GePol: Cavity volume                                =    413.580 Ang**3
 Leave Link  301 at Sat Nov  8 10:25:04 2025, MaxMem= 30870077440 cpu:               3.4 elap:               0.1
 (Enter /public/software/gauss/g16/l302.exe)
 NPDir=0 NMtPBC=     1 NCelOv=     1 NCel=       1 NClECP=     1 NCelD=      1
         NCelK=      1 NCelE2=     1 NClLst=     1 CellRange=     0.0.
 One-electron integrals computed using PRISM.
 One-electron integral symmetry used in STVInt
   1 Symmetry operations used in ECPInt.
 ECPInt:  NShTT=   61425 NPrTT=  171358 LenC2=   52272 LenP2D=  106791.
 LDataN:  DoStor=T MaxTD1= 6 Len=  172
 NBasis=   934 RedAO= T EigKep=  4.65D-06  NBF=   934
 NBsUse=   934 1.00D-06 EigRej= -1.00D+00 NBFU=   934
 Precomputing XC quadrature grid using
 IXCGrd= 4 IRadAn=           5 IRanWt=          -1 IRanGd=           0 AccXCQ= 0.00D+00.
 Generated NRdTot=       0 NPtTot=           0 NUsed=           0 NTot=          32
 NSgBfM=  1051  1051  1051  1051  1051 MxSgAt=    40 MxSgA2=    40.
 Leave Link  302 at Sat Nov  8 10:25:06 2025, MaxMem= 30870077440 cpu:             127.4 elap:               2.0
 (Enter /public/software/gauss/g16/l303.exe)
 DipDrv:  MaxL=1.
 Leave Link  303 at Sat Nov  8 10:25:06 2025, MaxMem= 30870077440 cpu:              10.4 elap:               0.2
 (Enter /public/software/gauss/g16/l401.exe)
 ExpMin= 6.06D-02 ExpMax= 3.55D+04 ExpMxC= 1.21D+03 IAcc=3 IRadAn=         5 AccDes= 0.00D+00
 Harris functional with IExCor= 1009 and IRadAn=       5 diagonalized for initial guess.
 HarFok:  IExCor= 1009 AccDes= 0.00D+00 IRadAn=         5 IDoV= 1 UseB2=F ITyADJ=14
 ICtDFT=  3500011 ScaDFX=  1.000000  1.000000  1.000000  1.000000
 FoFCou: FMM=F IPFlag=           0 FMFlag=      100000 FMFlg1=           0
         NFxFlg=           0 DoJE=T BraDBF=F KetDBF=T FulRan=T
         wScrn=  0.000000 ICntrl=       500 IOpCl=  0 I1Cent=   200000004 NGrid=           0
         NMat0=    1 NMatS0=      1 NMatT0=    0 NMatD0=    1 NMtDS0=    0 NMtDT0=    0
 Petite list used in FoFCou.
 Harris En= -1009.02114380124    
 JPrj=0 DoOrth=F DoCkMO=F.
 Leave Link  401 at Sat Nov  8 10:25:10 2025, MaxMem= 30870077440 cpu:             220.5 elap:               3.5
 (Enter /public/software/gauss/g16/l502.exe)
 Integral symmetry usage will be decided dynamically.
 Closed shell SCF:
 Using DIIS extrapolation, IDIIS=  1040.
 NGot= 30870077440 LenX= 30867744716 LenY= 30866615810
 Requested convergence on RMS density matrix=1.00D-08 within 128 cycles.
 Requested convergence on MAX density matrix=1.00D-06.
 Requested convergence on             energy=1.00D-06.
 No special actions if energy rises.
 Fock matrices will be formed incrementally for  20 cycles.

 Cycle   1  Pass 1  IDiag  1:
 FoFJK:  IHMeth= 1 ICntrl=       0 DoSepK=F KAlg= 0 I1Cent=           0 FoldK=F
 IRaf= 780000000 NMat=       1 IRICut=       1 DoRegI=T DoRafI=F ISym2E= 0 IDoP0=0 IntGTp=1.
 FoFCou: FMM=F IPFlag=           0 FMFlag=      100000 FMFlg1=           0
         NFxFlg=           0 DoJE=F BraDBF=F KetDBF=F FulRan=T
         wScrn=  0.000000 ICntrl=         0 IOpCl=  0 I1Cent=           0 NGrid=           0
         NMat0=    1 NMatS0=      1 NMatT0=    0 NMatD0=    1 NMtDS0=    0 NMtDT0=    0
 Symmetry not used in FoFCou.
 Inv3:  Mode=1 IEnd=    24865923.
 Iteration    1 A*A^-1 deviation from unit magnitude is 6.99D-15 for   2875.
 Iteration    1 A*A^-1 deviation from orthogonality  is 3.00D-15 for   2879   1355.
 Iteration    1 A^-1*A deviation from unit magnitude is 7.22D-15 for   2875.
 Iteration    1 A^-1*A deviation from orthogonality  is 3.32D-15 for   2865   1480.
 E= -1008.99444511529    
 DIIS: error= 2.96D-02 at cycle   1 NSaved=   1.
 NSaved= 1 IEnMin= 1 EnMin= -1008.99444511529     IErMin= 1 ErrMin= 2.96D-02
 ErrMax= 2.96D-02  0.00D+00 EMaxC= 1.00D-01 BMatC= 7.02D-01 BMatP= 7.02D-01
 IDIUse=3 WtCom= 7.04D-01 WtEn= 2.96D-01
 Coeff-Com:  0.100D+01
 Coeff-En:   0.100D+01
 Coeff:      0.100D+01
 Gap=     0.151 Goal=   None    Shift=    0.000
 GapD=    0.151 DampG=1.000 DampE=0.500 DampFc=0.5000 IDamp=-1.
 Damping current iteration by 5.00D-01
 RMSDP=1.89D-03 MaxDP=1.73D-01              OVMax= 1.46D-01

 Cycle   2  Pass 1  IDiag  1:
 RMSU=  9.33D-04    CP:  9.72D-01
 E= -1009.26969863291     Delta-E=       -0.275253517621 Rises=F Damp=T
 DIIS: error= 6.22D-03 at cycle   2 NSaved=   2.
 NSaved= 2 IEnMin= 2 EnMin= -1009.26969863291     IErMin= 2 ErrMin= 6.22D-03
 ErrMax= 6.22D-03  0.00D+00 EMaxC= 1.00D-01 BMatC= 6.38D-02 BMatP= 7.02D-01
 IDIUse=3 WtCom= 9.38D-01 WtEn= 6.22D-02
 Coeff-Com: -0.129D+00 0.113D+01
 Coeff-En:   0.000D+00 0.100D+01
 Coeff:     -0.121D+00 0.112D+01
 Gap=     0.161 Goal=   None    Shift=    0.000
 RMSDP=8.58D-04 MaxDP=7.04D-02 DE=-2.75D-01 OVMax= 9.46D-02

 Cycle   3  Pass 1  IDiag  1:
 RMSU=  7.81D-04    CP:  9.48D-01  1.36D+00
 E= -1009.50097983735     Delta-E=       -0.231281204441 Rises=F Damp=F
 DIIS: error= 6.29D-03 at cycle   3 NSaved=   3.
 NSaved= 3 IEnMin= 3 EnMin= -1009.50097983735     IErMin= 2 ErrMin= 6.22D-03
 ErrMax= 6.29D-03  0.00D+00 EMaxC= 1.00D-01 BMatC= 3.69D-02 BMatP= 6.38D-02
 IDIUse=3 WtCom= 9.37D-01 WtEn= 6.29D-02
 Coeff-Com: -0.121D+00 0.528D+00 0.594D+00
 Coeff-En:   0.000D+00 0.000D+00 0.100D+01
 Coeff:     -0.114D+00 0.495D+00 0.619D+00
 Gap=     0.153 Goal=   None    Shift=    0.000
 RMSDP=2.91D-04 MaxDP=3.06D-02 DE=-2.31D-01 OVMax= 6.18D-02

 Cycle   4  Pass 1  IDiag  1:
 RMSU=  2.30D-04    CP:  9.50D-01  1.49D+00  8.34D-01
 E= -1009.52426236053     Delta-E=       -0.023282523178 Rises=F Damp=F
 DIIS: error= 3.54D-03 at cycle   4 NSaved=   4.
 NSaved= 4 IEnMin= 4 EnMin= -1009.52426236053     IErMin= 4 ErrMin= 3.54D-03
 ErrMax= 3.54D-03  0.00D+00 EMaxC= 1.00D-01 BMatC= 1.10D-02 BMatP= 3.69D-02
 IDIUse=3 WtCom= 9.65D-01 WtEn= 3.54D-02
 Coeff-Com: -0.428D-01 0.120D+00 0.378D+00 0.545D+00
 Coeff-En:   0.000D+00 0.000D+00 0.252D+00 0.748D+00
 Coeff:     -0.412D-01 0.115D+00 0.374D+00 0.552D+00
 Gap=     0.153 Goal=   None    Shift=    0.000
 RMSDP=1.30D-04 MaxDP=1.80D-02 DE=-2.33D-02 OVMax= 2.43D-02

 Cycle   5  Pass 1  IDiag  1:
 RMSU=  7.04D-05    CP:  9.49D-01  1.44D+00  9.17D-01  6.72D-01
 E= -1009.53362855938     Delta-E=       -0.009366198855 Rises=F Damp=F
 DIIS: error= 5.85D-04 at cycle   5 NSaved=   5.
 NSaved= 5 IEnMin= 5 EnMin= -1009.53362855938     IErMin= 5 ErrMin= 5.85D-04
 ErrMax= 5.85D-04  0.00D+00 EMaxC= 1.00D-01 BMatC= 4.19D-04 BMatP= 1.10D-02
 IDIUse=3 WtCom= 9.94D-01 WtEn= 5.85D-03
 Coeff-Com: -0.142D-01 0.303D-01 0.160D+00 0.281D+00 0.543D+00
 Coeff-En:   0.000D+00 0.000D+00 0.000D+00 0.000D+00 0.100D+01
 Coeff:     -0.141D-01 0.301D-01 0.159D+00 0.279D+00 0.546D+00
 Gap=     0.153 Goal=   None    Shift=    0.000
 RMSDP=2.88D-05 MaxDP=3.58D-03 DE=-9.37D-03 OVMax= 3.64D-03

 Cycle   6  Pass 1  IDiag  1:
 RMSU=  1.92D-05    CP:  9.49D-01  1.45D+00  9.18D-01  6.91D-01  7.59D-01
 E= -1009.53393882927     Delta-E=       -0.000310269891 Rises=F Damp=F
 DIIS: error= 1.55D-04 at cycle   6 NSaved=   6.
 NSaved= 6 IEnMin= 6 EnMin= -1009.53393882927     IErMin= 6 ErrMin= 1.55D-04
 ErrMax= 1.55D-04  0.00D+00 EMaxC= 1.00D-01 BMatC= 2.94D-05 BMatP= 4.19D-04
 IDIUse=3 WtCom= 9.98D-01 WtEn= 1.55D-03
 Coeff-Com: -0.251D-02 0.331D-02 0.397D-01 0.776D-01 0.255D+00 0.627D+00
 Coeff-En:   0.000D+00 0.000D+00 0.000D+00 0.000D+00 0.000D+00 0.100D+01
 Coeff:     -0.250D-02 0.330D-02 0.397D-01 0.775D-01 0.254D+00 0.628D+00
 Gap=     0.153 Goal=   None    Shift=    0.000
 RMSDP=6.78D-06 MaxDP=5.28D-04 DE=-3.10D-04 OVMax= 1.40D-03

 Cycle   7  Pass 1  IDiag  1:
 RMSU=  5.74D-06    CP:  9.49D-01  1.45D+00  9.21D-01  6.89D-01  7.97D-01
                    CP:  9.75D-01
 E= -1009.53396289017     Delta-E=       -0.000024060893 Rises=F Damp=F
 DIIS: error= 4.15D-05 at cycle   7 NSaved=   7.
 NSaved= 7 IEnMin= 7 EnMin= -1009.53396289017     IErMin= 7 ErrMin= 4.15D-05
 ErrMax= 4.15D-05  0.00D+00 EMaxC= 1.00D-01 BMatC= 3.28D-06 BMatP= 2.94D-05
 IDIUse=1 WtCom= 1.00D+00 WtEn= 0.00D+00
 Coeff-Com:  0.879D-03-0.261D-02-0.602D-02-0.819D-02 0.305D-01 0.277D+00
 Coeff-Com:  0.709D+00
 Coeff:      0.879D-03-0.261D-02-0.602D-02-0.819D-02 0.305D-01 0.277D+00
 Coeff:      0.709D+00
 Gap=     0.153 Goal=   None    Shift=    0.000
 RMSDP=3.91D-06 MaxDP=4.82D-04 DE=-2.41D-05 OVMax= 4.59D-04

 Cycle   8  Pass 1  IDiag  1:
 RMSU=  3.31D-06    CP:  9.49D-01  1.45D+00  9.22D-01  6.92D-01  8.11D-01
                    CP:  1.00D+00  1.18D+00
 E= -1009.53396589825     Delta-E=       -0.000003008080 Rises=F Damp=F
 DIIS: error= 1.45D-05 at cycle   8 NSaved=   8.
 NSaved= 8 IEnMin= 8 EnMin= -1009.53396589825     IErMin= 8 ErrMin= 1.45D-05
 ErrMax= 1.45D-05  0.00D+00 EMaxC= 1.00D-01 BMatC= 2.50D-07 BMatP= 3.28D-06
 IDIUse=1 WtCom= 1.00D+00 WtEn= 0.00D+00
 Coeff-Com:  0.604D-03-0.136D-02-0.664D-02-0.123D-01-0.170D-01 0.379D-01
 Coeff-Com:  0.259D+00 0.740D+00
 Coeff:      0.604D-03-0.136D-02-0.664D-02-0.123D-01-0.170D-01 0.379D-01
 Coeff:      0.259D+00 0.740D+00
 Gap=     0.153 Goal=   None    Shift=    0.000
 RMSDP=1.53D-06 MaxDP=1.45D-04 DE=-3.01D-06 OVMax= 2.90D-04

 Cycle   9  Pass 1  IDiag  1:
 RMSU=  9.97D-07    CP:  9.49D-01  1.45D+00  9.23D-01  6.93D-01  8.19D-01
                    CP:  1.02D+00  1.26D+00  1.09D+00
 E= -1009.53396618159     Delta-E=       -0.000000283347 Rises=F Damp=F
 DIIS: error= 4.80D-06 at cycle   9 NSaved=   9.
 NSaved= 9 IEnMin= 9 EnMin= -1009.53396618159     IErMin= 9 ErrMin= 4.80D-06
 ErrMax= 4.80D-06  0.00D+00 EMaxC= 1.00D-01 BMatC= 2.65D-08 BMatP= 2.50D-07
 IDIUse=1 WtCom= 1.00D+00 WtEn= 0.00D+00
 Coeff-Com:  0.114D-03-0.209D-03-0.157D-02-0.356D-02-0.882D-02-0.124D-01
 Coeff-Com:  0.101D-01 0.243D+00 0.773D+00
 Coeff:      0.114D-03-0.209D-03-0.157D-02-0.356D-02-0.882D-02-0.124D-01
 Coeff:      0.101D-01 0.243D+00 0.773D+00
 Gap=     0.153 Goal=   None    Shift=    0.000
 RMSDP=3.87D-07 MaxDP=3.53D-05 DE=-2.83D-07 OVMax= 7.66D-05

 Cycle  10  Pass 1  IDiag  1:
 RMSU=  2.76D-07    CP:  9.49D-01  1.45D+00  9.23D-01  6.93D-01  8.19D-01
                    CP:  1.02D+00  1.29D+00  1.14D+00  9.68D-01
 E= -1009.53396621424     Delta-E=       -0.000000032649 Rises=F Damp=F
 DIIS: error= 1.79D-06 at cycle  10 NSaved=  10.
 NSaved=10 IEnMin=10 EnMin= -1009.53396621424     IErMin=10 ErrMin= 1.79D-06
 ErrMax= 1.79D-06  0.00D+00 EMaxC= 1.00D-01 BMatC= 3.43D-09 BMatP= 2.65D-08
 IDIUse=1 WtCom= 1.00D+00 WtEn= 0.00D+00
 Coeff-Com: -0.155D-04 0.534D-04 0.463D-04-0.233D-03-0.188D-02-0.735D-02
 Coeff-Com: -0.212D-01 0.284D-01 0.302D+00 0.700D+00
 Coeff:     -0.155D-04 0.534D-04 0.463D-04-0.233D-03-0.188D-02-0.735D-02
 Coeff:     -0.212D-01 0.284D-01 0.302D+00 0.700D+00
 Gap=     0.153 Goal=   None    Shift=    0.000
 RMSDP=1.35D-07 MaxDP=9.50D-06 DE=-3.26D-08 OVMax= 4.51D-05

 Cycle  11  Pass 1  IDiag  1:
 RMSU=  8.89D-08    CP:  9.49D-01  1.45D+00  9.23D-01  6.93D-01  8.19D-01
                    CP:  1.02D+00  1.29D+00  1.17D+00  1.01D+00  1.06D+00
 E= -1009.53396621840     Delta-E=       -0.000000004159 Rises=F Damp=F
 DIIS: error= 8.62D-07 at cycle  11 NSaved=  11.
 NSaved=11 IEnMin=11 EnMin= -1009.53396621840     IErMin=11 ErrMin= 8.62D-07
 ErrMax= 8.62D-07  0.00D+00 EMaxC= 1.00D-01 BMatC= 6.31D-10 BMatP= 3.43D-09
 IDIUse=1 WtCom= 1.00D+00 WtEn= 0.00D+00
 Coeff-Com: -0.259D-04 0.599D-04 0.283D-03 0.484D-03 0.572D-03-0.123D-02
 Coeff-Com: -0.122D-01-0.286D-01-0.173D-02 0.314D+00 0.728D+00
 Coeff:     -0.259D-04 0.599D-04 0.283D-03 0.484D-03 0.572D-03-0.123D-02
 Coeff:     -0.122D-01-0.286D-01-0.173D-02 0.314D+00 0.728D+00
 Gap=     0.153 Goal=   None    Shift=    0.000
 RMSDP=4.49D-08 MaxDP=4.29D-06 DE=-4.16D-09 OVMax= 1.50D-05

 Cycle  12  Pass 1  IDiag  1:
 RMSU=  3.16D-08    CP:  9.49D-01  1.45D+00  9.23D-01  6.93D-01  8.19D-01
                    CP:  1.02D+00  1.29D+00  1.17D+00  1.03D+00  1.14D+00
                    CP:  1.00D+00
 E= -1009.53396621909     Delta-E=       -0.000000000692 Rises=F Damp=F
 DIIS: error= 1.95D-07 at cycle  12 NSaved=  12.
 NSaved=12 IEnMin=12 EnMin= -1009.53396621909     IErMin=12 ErrMin= 1.95D-07
 ErrMax= 1.95D-07  0.00D+00 EMaxC= 1.00D-01 BMatC= 4.43D-11 BMatP= 6.31D-10
 IDIUse=1 WtCom= 1.00D+00 WtEn= 0.00D+00
 Coeff-Com: -0.697D-05 0.145D-04 0.923D-04 0.184D-03 0.334D-03 0.186D-03
 Coeff-Com: -0.253D-02-0.114D-01-0.270D-01 0.544D-01 0.264D+00 0.722D+00
 Coeff:     -0.697D-05 0.145D-04 0.923D-04 0.184D-03 0.334D-03 0.186D-03
 Coeff:     -0.253D-02-0.114D-01-0.270D-01 0.544D-01 0.264D+00 0.722D+00
 Gap=     0.153 Goal=   None    Shift=    0.000
 RMSDP=1.39D-08 MaxDP=1.40D-06 DE=-6.92D-10 OVMax= 3.79D-06

 Cycle  13  Pass 1  IDiag  1:
 RMSU=  1.00D-08    CP:  9.49D-01  1.45D+00  9.23D-01  6.93D-01  8.19D-01
                    CP:  1.02D+00  1.29D+00  1.17D+00  1.03D+00  1.15D+00
                    CP:  1.05D+00  1.11D+00
 E= -1009.53396621920     Delta-E=       -0.000000000109 Rises=F Damp=F
 DIIS: error= 7.65D-08 at cycle  13 NSaved=  13.
 NSaved=13 IEnMin=13 EnMin= -1009.53396621920     IErMin=13 ErrMin= 7.65D-08
 ErrMax= 7.65D-08  0.00D+00 EMaxC= 1.00D-01 BMatC= 3.12D-12 BMatP= 4.43D-11
 IDIUse=1 WtCom= 1.00D+00 WtEn= 0.00D+00
 Coeff-Com:  0.136D-05-0.330D-05-0.886D-05-0.870D-05 0.206D-04 0.235D-03
 Coeff-Com:  0.783D-03 0.664D-03-0.816D-02-0.234D-01-0.177D-01 0.180D+00
 Coeff-Com:  0.867D+00
 Coeff:      0.136D-05-0.330D-05-0.886D-05-0.870D-05 0.206D-04 0.235D-03
 Coeff:      0.783D-03 0.664D-03-0.816D-02-0.234D-01-0.177D-01 0.180D+00
 Coeff:      0.867D+00
 Gap=     0.153 Goal=   None    Shift=    0.000
 RMSDP=7.43D-09 MaxDP=7.89D-07 DE=-1.09D-10 OVMax= 1.39D-06

 Error on total polarization charges =  0.01672
 SCF Done:  E(RM062X) =  -1009.53396622     A.U. after   13 cycles
            NFock= 13  Conv=0.74D-08     -V/T= 2.0054
 KE= 1.004117172354D+03 PE=-6.021193375367D+03 EE= 2.175006719353D+03
 Leave Link  502 at Sat Nov  8 10:30:08 2025, MaxMem= 30870077440 cpu:           18801.4 elap:             298.3
 (Enter /public/software/gauss/g16/l601.exe)
 Copying SCF densities to generalized density rwf, IOpCl= 0 IROHF=0.

 **********************************************************************

            Population analysis using the SCF density.

 **********************************************************************

 Orbital symmetries:
       Occupied  (A) (A) (A) (A) (A) (A) (A) (A) (A) (A) (A) (A)
                 (A) (A) (A) (A) (A) (A) (A) (A) (A) (A) (A) (A)
                 (A) (A) (A) (A) (A) (A) (A) (A) (A) (A) (A) (A)
                 (A) (A) (A) (A) (A) (A) (A) (A) (A) (A) (A) (A)
                 (A) (A) (A) (A) (A) (A) (A) (A) (A) (A) (A) (A)
                 (A) (A) (A) (A) (A) (A) (A) (A) (A) (A) (A) (A)
                 (A) (A) (A) (A) (A) (A) (A)
       Virtual   (A) (A) (A) (A) (A) (A) (A) (A) (A) (A) (A) (A)
                 (A) (A) (A) (A) (A) (A) (A) (A) (A) (A) (A) (A)
                 (A) (A) (A) (A) (A) (A) (A) (A) (A) (A) (A) (A)
                 (A) (A) (A) (A) (A) (A) (A) (A) (A) (A) (A) (A)
                 (A) (A) (A) (A) (A) (A) (A) (A) (A) (A) (A) (A)
                 (A) (A) (A) (A) (A) (A) (A) (A) (A) (A) (A) (A)
                 (A) (A) (A) (A) (A) (A) (A) (A) (A) (A) (A) (A)
                 (A) (A) (A) (A) (A) (A) (A) (A) (A) (A) (A) (A)
                 (A) (A) (A) (A) (A) (A) (A) (A) (A) (A) (A) (A)
                 (A) (A) (A) (A) (A) (A) (A) (A) (A) (A) (A) (A)
                 (A) (A) (A) (A) (A) (A) (A) (A) (A) (A) (A) (A)
                 (A) (A) (A) (A) (A) (A) (A) (A) (A) (A) (A) (A)
                 (A) (A) (A) (A) (A) (A) (A) (A) (A) (A) (A) (A)
                 (A) (A) (A) (A) (A) (A) (A) (A) (A) (A) (A) (A)
                 (A) (A) (A) (A) (A) (A) (A) (A) (A) (A) (A) (A)
                 (A) (A) (A) (A) (A) (A) (A) (A) (A) (A) (A) (A)
                 (A) (A) (A) (A) (A) (A) (A) (A) (A) (A) (A) (A)
                 (A) (A) (A) (A) (A) (A) (A) (A) (A) (A) (A) (A)
                 (A) (A) (A) (A) (A) (A) (A) (A) (A) (A) (A) (A)
                 (A) (A) (A) (A) (A) (A) (A) (A) (A) (A) (A) (A)
                 (A) (A) (A) (A) (A) (A) (A) (A) (A) (A) (A) (A)
                 (A) (A) (A) (A) (A) (A) (A) (A) (A) (A) (A) (A)
                 (A) (A) (A) (A) (A) (A) (A) (A) (A) (A) (A) (A)
                 (A) (A) (A) (A) (A) (A) (A) (A) (A) (A) (A) (A)
                 (A) (A) (A) (A) (A) (A) (A) (A) (A) (A) (A) (A)
                 (A) (A) (A) (A) (A) (A) (A) (A) (A) (A) (A) (A)
                 (A) (A) (A) (A) (A) (A) (A) (A) (A) (A) (A) (A)
                 (A) (A) (A) (A) (A) (A) (A) (A) (A) (A) (A) (A)
                 (A) (A) (A) (A) (A) (A) (A) (A) (A) (A) (A) (A)
                 (A) (A) (A) (A) (A) (A) (A) (A) (A) (A) (A) (A)
                 (A) (A) (A) (A) (A) (A) (A) (A) (A) (A) (A) (A)
                 (A) (A) (A) (A) (A) (A) (A) (A) (A) (A) (A) (A)
                 (A) (A) (A) (A) (A) (A) (A) (A) (A) (A) (A) (A)
                 (A) (A) (A) (A) (A) (A) (A) (A) (A) (A) (A) (A)
                 (A) (A) (A) (A) (A) (A) (A) (A) (A) (A) (A) (A)
                 (A) (A) (A) (A) (A) (A) (A) (A) (A) (A) (A) (A)
                 (A) (A) (A) (A) (A) (A) (A) (A) (A) (A) (A) (A)
                 (A) (A) (A) (A) (A) (A) (A) (A) (A) (A) (A) (A)
                 (A) (A) (A) (A) (A) (A) (A) (A) (A) (A) (A) (A)
                 (A) (A) (A) (A) (A) (A) (A) (A) (A) (A) (A) (A)
                 (A) (A) (A) (A) (A) (A) (A) (A) (A) (A) (A) (A)
                 (A) (A) (A) (A) (A) (A) (A) (A) (A) (A) (A) (A)
                 (A) (A) (A) (A) (A) (A) (A) (A) (A) (A) (A) (A)
                 (A) (A) (A) (A) (A) (A) (A) (A) (A) (A) (A) (A)
                 (A) (A) (A) (A) (A) (A) (A) (A) (A) (A) (A) (A)
                 (A) (A) (A) (A) (A) (A) (A) (A) (A) (A) (A) (A)
                 (A) (A) (A) (A) (A) (A) (A) (A) (A) (A) (A) (A)
                 (A) (A) (A) (A) (A) (A) (A) (A) (A) (A) (A) (A)
                 (A) (A) (A) (A) (A) (A) (A) (A) (A) (A) (A) (A)
                 (A) (A) (A) (A) (A) (A) (A) (A) (A) (A) (A) (A)
                 (A) (A) (A) (A) (A) (A) (A) (A) (A) (A) (A) (A)
                 (A) (A) (A) (A) (A) (A) (A) (A) (A) (A) (A) (A)
                 (A) (A) (A) (A) (A) (A) (A) (A) (A) (A) (A) (A)
                 (A) (A) (A) (A) (A) (A) (A) (A) (A) (A) (A) (A)
                 (A) (A) (A) (A) (A) (A) (A) (A) (A) (A) (A) (A)
                 (A) (A) (A) (A) (A) (A) (A) (A) (A) (A) (A) (A)
                 (A) (A) (A) (A) (A) (A) (A) (A) (A) (A) (A) (A)
                 (A) (A) (A) (A) (A) (A) (A) (A) (A) (A) (A) (A)
                 (A) (A) (A) (A) (A) (A) (A) (A) (A) (A) (A) (A)
                 (A) (A) (A) (A) (A) (A) (A) (A) (A) (A) (A) (A)
                 (A) (A) (A) (A) (A) (A) (A) (A) (A) (A) (A) (A)
                 (A) (A) (A) (A) (A) (A) (A) (A) (A) (A) (A) (A)
                 (A) (A) (A) (A) (A) (A) (A) (A) (A) (A) (A) (A)
                 (A) (A) (A) (A) (A) (A) (A) (A) (A) (A) (A) (A)
                 (A) (A) (A) (A) (A) (A) (A) (A) (A) (A) (A) (A)
                 (A) (A) (A) (A) (A) (A) (A) (A) (A) (A) (A) (A)
                 (A) (A) (A) (A) (A) (A) (A) (A) (A) (A) (A) (A)
                 (A) (A) (A) (A) (A) (A) (A) (A) (A) (A) (A) (A)
                 (A) (A) (A) (A) (A) (A) (A) (A) (A) (A) (A) (A)
                 (A) (A) (A) (A) (A) (A) (A) (A) (A) (A) (A) (A)
                 (A) (A) (A) (A) (A) (A) (A) (A) (A) (A) (A) (A)
                 (A) (A) (A)
 The electronic state is 1-A.
 Alpha  occ. eigenvalues --  -25.20712 -25.20650 -14.78867 -14.78866 -14.78501
 Alpha  occ. eigenvalues --  -10.63034 -10.61150 -10.60749 -10.60748 -10.59991
 Alpha  occ. eigenvalues --  -10.59989 -10.57334 -10.57333 -10.55380 -10.55379
 Alpha  occ. eigenvalues --  -10.54595 -10.54594 -10.54295 -10.54294 -10.53968
 Alpha  occ. eigenvalues --  -10.53967  -7.13573  -1.32614  -1.29382  -1.11472
 Alpha  occ. eigenvalues --   -1.09494  -1.04243  -0.94850  -0.92600  -0.91674
 Alpha  occ. eigenvalues --   -0.88515  -0.85820  -0.82527  -0.82504  -0.79752
 Alpha  occ. eigenvalues --   -0.78524  -0.76373  -0.74148  -0.67841  -0.66270
 Alpha  occ. eigenvalues --   -0.65265  -0.63014  -0.61340  -0.59750  -0.58763
 Alpha  occ. eigenvalues --   -0.58508  -0.57258  -0.54093  -0.54043  -0.53428
 Alpha  occ. eigenvalues --   -0.51859  -0.51208  -0.50090  -0.49747  -0.49492
 Alpha  occ. eigenvalues --   -0.49255  -0.48396  -0.48261  -0.48067  -0.47536
 Alpha  occ. eigenvalues --   -0.47414  -0.47408  -0.47164  -0.46869  -0.46327
 Alpha  occ. eigenvalues --   -0.45995  -0.45123  -0.44856  -0.44575  -0.44117
 Alpha  occ. eigenvalues --   -0.44088  -0.43875  -0.42195  -0.41715  -0.39901
 Alpha  occ. eigenvalues --   -0.35208  -0.31346  -0.30622  -0.25481
 Alpha virt. eigenvalues --   -0.10154   0.04091   0.04230   0.04937   0.05350
 Alpha virt. eigenvalues --    0.06821   0.07056   0.07746   0.09112   0.09260
 Alpha virt. eigenvalues --    0.09984   0.11045   0.11191   0.12147   0.13084
 Alpha virt. eigenvalues --    0.13356   0.13772   0.13984   0.14175   0.15616
 Alpha virt. eigenvalues --    0.15702   0.16165   0.16262   0.16814   0.16881
 Alpha virt. eigenvalues --    0.17026   0.17472   0.17527   0.18175   0.18259
 Alpha virt. eigenvalues --    0.19163   0.19398   0.19454   0.20198   0.20339
 Alpha virt. eigenvalues --    0.20634   0.21328   0.22397   0.22902   0.23569
 Alpha virt. eigenvalues --    0.24009   0.25164   0.25228   0.25365   0.26521
 Alpha virt. eigenvalues --    0.26539   0.27063   0.27907   0.28271   0.28662
 Alpha virt. eigenvalues --    0.29727   0.29778   0.30326   0.30959   0.31775
 Alpha virt. eigenvalues --    0.31811   0.32597   0.32824   0.33367   0.33747
 Alpha virt. eigenvalues --    0.33959   0.34989   0.35534   0.35603   0.36781
 Alpha virt. eigenvalues --    0.36937   0.37212   0.37609   0.37837   0.38176
 Alpha virt. eigenvalues --    0.38284   0.39317   0.40454   0.40508   0.41026
 Alpha virt. eigenvalues --    0.41244   0.41693   0.42136   0.43163   0.43452
 Alpha virt. eigenvalues --    0.44106   0.44753   0.45203   0.45566   0.45807
 Alpha virt. eigenvalues --    0.46196   0.46726   0.47158   0.47330   0.47415
 Alpha virt. eigenvalues --    0.47871   0.48139   0.48652   0.48705   0.49367
 Alpha virt. eigenvalues --    0.49779   0.50084   0.50160   0.50712   0.51465
 Alpha virt. eigenvalues --    0.51561   0.52055   0.52601   0.52860   0.52873
 Alpha virt. eigenvalues --    0.53233   0.53636   0.54896   0.54980   0.55171
 Alpha virt. eigenvalues --    0.55598   0.56399   0.56742   0.56869   0.58168
 Alpha virt. eigenvalues --    0.58295   0.59160   0.59397   0.59461   0.60375
 Alpha virt. eigenvalues --    0.61349   0.61519   0.61858   0.63164   0.63938
 Alpha virt. eigenvalues --    0.64185   0.64229   0.64582   0.65268   0.66163
 Alpha virt. eigenvalues --    0.66220   0.67050   0.67353   0.67366   0.68159
 Alpha virt. eigenvalues --    0.68476   0.69635   0.70592   0.71106   0.71613
 Alpha virt. eigenvalues --    0.73006   0.73821   0.74821   0.75559   0.75597
 Alpha virt. eigenvalues --    0.76121   0.77298   0.77749   0.77845   0.78679
 Alpha virt. eigenvalues --    0.79857   0.80341   0.81165   0.81694   0.82839
 Alpha virt. eigenvalues --    0.82984   0.83326   0.84338   0.84751   0.85538
 Alpha virt. eigenvalues --    0.85585   0.85982   0.86022   0.87357   0.88491
 Alpha virt. eigenvalues --    0.89476   0.89940   0.90600   0.91253   0.91295
 Alpha virt. eigenvalues --    0.92323   0.92647   0.93234   0.93419   0.94231
 Alpha virt. eigenvalues --    0.94864   0.95212   0.95598   0.96247   0.96777
 Alpha virt. eigenvalues --    0.97819   0.98047   0.98525   0.98976   0.99547
 Alpha virt. eigenvalues --    0.99549   1.00206   1.00499   1.01446   1.02313
 Alpha virt. eigenvalues --    1.02713   1.02973   1.03974   1.04901   1.05019
 Alpha virt. eigenvalues --    1.06149   1.06529   1.06961   1.08187   1.08481
 Alpha virt. eigenvalues --    1.08803   1.08942   1.09785   1.09853   1.10167
 Alpha virt. eigenvalues --    1.10658   1.11026   1.11585   1.12852   1.12933
 Alpha virt. eigenvalues --    1.14434   1.14565   1.15355   1.15947   1.16483
 Alpha virt. eigenvalues --    1.17302   1.18485   1.18795   1.19689   1.20597
 Alpha virt. eigenvalues --    1.20809   1.20933   1.21161   1.22378   1.24512
 Alpha virt. eigenvalues --    1.25081   1.25396   1.25567   1.26064   1.26396
 Alpha virt. eigenvalues --    1.26829   1.27567   1.28147   1.28565   1.28741
 Alpha virt. eigenvalues --    1.29758   1.31127   1.31531   1.32293   1.33393
 Alpha virt. eigenvalues --    1.33545   1.35480   1.36183   1.36292   1.37314
 Alpha virt. eigenvalues --    1.37349   1.39045   1.40024   1.40084   1.40886
 Alpha virt. eigenvalues --    1.41363   1.41998   1.42070   1.42514   1.42958
 Alpha virt. eigenvalues --    1.43185   1.43751   1.44893   1.45174   1.46543
 Alpha virt. eigenvalues --    1.46733   1.47577   1.48022   1.48740   1.48847
 Alpha virt. eigenvalues --    1.49585   1.50466   1.50728   1.50956   1.51598
 Alpha virt. eigenvalues --    1.52237   1.52866   1.53268   1.53410   1.54096
 Alpha virt. eigenvalues --    1.54173   1.54301   1.54746   1.55388   1.55525
 Alpha virt. eigenvalues --    1.56714   1.57457   1.58274   1.58352   1.58576
 Alpha virt. eigenvalues --    1.59009   1.60511   1.60605   1.60806   1.61536
 Alpha virt. eigenvalues --    1.61840   1.62597   1.63689   1.64044   1.64805
 Alpha virt. eigenvalues --    1.65728   1.66161   1.66467   1.66752   1.68534
 Alpha virt. eigenvalues --    1.69169   1.69316   1.70311   1.71607   1.72327
 Alpha virt. eigenvalues --    1.72795   1.73675   1.73788   1.75516   1.75732
 Alpha virt. eigenvalues --    1.76314   1.77112   1.78031   1.79763   1.80640
 Alpha virt. eigenvalues --    1.81339   1.83240   1.83520   1.85056   1.86481
 Alpha virt. eigenvalues --    1.87478   1.89148   1.89153   1.90644   1.91009
 Alpha virt. eigenvalues --    1.93862   1.96116   1.96418   1.96879   1.98352
 Alpha virt. eigenvalues --    1.98955   1.99109   2.01903   2.02117   2.02498
 Alpha virt. eigenvalues --    2.03090   2.03392   2.05669   2.06867   2.09686
 Alpha virt. eigenvalues --    2.09876   2.10149   2.10229   2.12646   2.12775
 Alpha virt. eigenvalues --    2.13816   2.17056   2.17648   2.19288   2.20018
 Alpha virt. eigenvalues --    2.20416   2.20541   2.23139   2.23593   2.24840
 Alpha virt. eigenvalues --    2.26802   2.27696   2.28645   2.30895   2.31415
 Alpha virt. eigenvalues --    2.32104   2.32416   2.33889   2.34151   2.36310
 Alpha virt. eigenvalues --    2.37538   2.37900   2.38949   2.39556   2.39960
 Alpha virt. eigenvalues --    2.42165   2.42575   2.43244   2.43869   2.45225
 Alpha virt. eigenvalues --    2.45606   2.45766   2.46197   2.47037   2.49333
 Alpha virt. eigenvalues --    2.49452   2.50529   2.50877   2.51398   2.52564
 Alpha virt. eigenvalues --    2.54568   2.55315   2.55422   2.56275   2.56687
 Alpha virt. eigenvalues --    2.57360   2.58303   2.58990   2.61238   2.62339
 Alpha virt. eigenvalues --    2.62848   2.64623   2.65368   2.66443   2.66995
 Alpha virt. eigenvalues --    2.67685   2.68608   2.69367   2.70204   2.71213
 Alpha virt. eigenvalues --    2.72014   2.72901   2.73487   2.73817   2.74184
 Alpha virt. eigenvalues --    2.74209   2.74890   2.76150   2.76205   2.76817
 Alpha virt. eigenvalues --    2.77222   2.78556   2.79434   2.80306   2.81124
 Alpha virt. eigenvalues --    2.81601   2.82113   2.82503   2.82819   2.83214
 Alpha virt. eigenvalues --    2.83725   2.83780   2.84382   2.84571   2.85547
 Alpha virt. eigenvalues --    2.86128   2.87010   2.87070   2.87833   2.89067
 Alpha virt. eigenvalues --    2.89714   2.90193   2.90413   2.91588   2.92090
 Alpha virt. eigenvalues --    2.92384   2.93515   2.93637   2.94375   2.95295
 Alpha virt. eigenvalues --    2.95755   2.96394   2.96396   2.97370   2.98076
 Alpha virt. eigenvalues --    2.98611   2.98757   2.98894   2.99173   2.99827
 Alpha virt. eigenvalues --    3.00340   3.00538   3.01242   3.01923   3.02076
 Alpha virt. eigenvalues --    3.02719   3.03106   3.04089   3.04388   3.05639
 Alpha virt. eigenvalues --    3.06068   3.06559   3.06612   3.06998   3.07033
 Alpha virt. eigenvalues --    3.07547   3.09478   3.10093   3.10377   3.10561
 Alpha virt. eigenvalues --    3.10795   3.11085   3.12757   3.14205   3.15183
 Alpha virt. eigenvalues --    3.15184   3.15856   3.16824   3.16828   3.16868
 Alpha virt. eigenvalues --    3.17601   3.17922   3.18717   3.20057   3.22019
 Alpha virt. eigenvalues --    3.22023   3.22620   3.22882   3.24342   3.24427
 Alpha virt. eigenvalues --    3.24502   3.24997   3.25002   3.26279   3.26618
 Alpha virt. eigenvalues --    3.27902   3.29488   3.29744   3.29754   3.30330
 Alpha virt. eigenvalues --    3.31505   3.32163   3.32300   3.33082   3.33330
 Alpha virt. eigenvalues --    3.33943   3.35185   3.35308   3.35913   3.36397
 Alpha virt. eigenvalues --    3.36532   3.37240   3.37559   3.37672   3.38422
 Alpha virt. eigenvalues --    3.39046   3.39179   3.39915   3.40161   3.41843
 Alpha virt. eigenvalues --    3.42287   3.42621   3.43812   3.44629   3.44726
 Alpha virt. eigenvalues --    3.46415   3.47739   3.47849   3.48591   3.48949
 Alpha virt. eigenvalues --    3.49914   3.50813   3.51275   3.51408   3.52448
 Alpha virt. eigenvalues --    3.52653   3.53350   3.53382   3.54043   3.54589
 Alpha virt. eigenvalues --    3.55265   3.55332   3.55551   3.56268   3.56368
 Alpha virt. eigenvalues --    3.57033   3.57416   3.58004   3.58361   3.58442
 Alpha virt. eigenvalues --    3.58520   3.61345   3.61488   3.62785   3.63502
 Alpha virt. eigenvalues --    3.64723   3.65867   3.67098   3.67736   3.67859
 Alpha virt. eigenvalues --    3.68502   3.68505   3.69041   3.69362   3.71778
 Alpha virt. eigenvalues --    3.73560   3.74121   3.75074   3.75596   3.75849
 Alpha virt. eigenvalues --    3.76903   3.77939   3.79270   3.79565   3.81578
 Alpha virt. eigenvalues --    3.81828   3.82542   3.82801   3.82847   3.84059
 Alpha virt. eigenvalues --    3.84448   3.86063   3.86640   3.87491   3.87720
 Alpha virt. eigenvalues --    3.88307   3.88339   3.89148   3.89530   3.89798
 Alpha virt. eigenvalues --    3.90152   3.90881   3.90953   3.91100   3.92542
 Alpha virt. eigenvalues --    3.93746   3.94467   3.94568   3.95027   3.95458
 Alpha virt. eigenvalues --    3.96740   3.96856   3.97309   3.98649   3.99358
 Alpha virt. eigenvalues --    4.00265   4.00481   4.00699   4.01564   4.02553
 Alpha virt. eigenvalues --    4.02905   4.03889   4.04020   4.05108   4.05217
 Alpha virt. eigenvalues --    4.05896   4.05982   4.06076   4.07000   4.07119
 Alpha virt. eigenvalues --    4.07521   4.09135   4.09136   4.09551   4.10245
 Alpha virt. eigenvalues --    4.10790   4.11084   4.11444   4.12242   4.12557
 Alpha virt. eigenvalues --    4.13336   4.13419   4.14423   4.14647   4.15558
 Alpha virt. eigenvalues --    4.16257   4.16414   4.17976   4.18166   4.18730
 Alpha virt. eigenvalues --    4.18898   4.19558   4.20484   4.22097   4.22804
 Alpha virt. eigenvalues --    4.23435   4.24456   4.25997   4.26939   4.27025
 Alpha virt. eigenvalues --    4.27061   4.28817   4.29233   4.30983   4.31655
 Alpha virt. eigenvalues --    4.32111   4.32414   4.32879   4.34892   4.35030
 Alpha virt. eigenvalues --    4.37175   4.38378   4.38556   4.39140   4.39605
 Alpha virt. eigenvalues --    4.41300   4.41865   4.42896   4.43232   4.46092
 Alpha virt. eigenvalues --    4.48543   4.48757   4.53167   4.53347   4.54895
 Alpha virt. eigenvalues --    4.55420   4.56068   4.57638   4.57829   4.60109
 Alpha virt. eigenvalues --    4.61452   4.62332   4.62744   4.62753   4.63416
 Alpha virt. eigenvalues --    4.63521   4.64806   4.65485   4.66615   4.67288
 Alpha virt. eigenvalues --    4.68360   4.68608   4.71057   4.71465   4.72440
 Alpha virt. eigenvalues --    4.74011   4.75132   4.75339   4.76837   4.77921
 Alpha virt. eigenvalues --    4.78083   4.79391   4.81340   4.82481   4.85346
 Alpha virt. eigenvalues --    4.85665   4.86409   4.89985   4.90942   4.91897
 Alpha virt. eigenvalues --    4.92570   4.93443   4.95334   4.95890   4.98090
 Alpha virt. eigenvalues --    4.99605   5.00772   5.00777   5.03289   5.04222
 Alpha virt. eigenvalues --    5.04877   5.05881   5.06619   5.07461   5.07600
 Alpha virt. eigenvalues --    5.11068   5.12198   5.13372   5.13702   5.14075
 Alpha virt. eigenvalues --    5.15070   5.15398   5.15932   5.16735   5.16801
 Alpha virt. eigenvalues --    5.16910   5.17952   5.18029   5.19909   5.20611
 Alpha virt. eigenvalues --    5.21242   5.21358   5.23157   5.23512   5.25866
 Alpha virt. eigenvalues --    5.28311   5.29060   5.29100   5.29684   5.29912
 Alpha virt. eigenvalues --    5.30498   5.30612   5.30778   5.31488   5.32081
 Alpha virt. eigenvalues --    5.33136   5.33255   5.34775   5.34899   5.35746
 Alpha virt. eigenvalues --    5.36697   5.36833   5.37694   5.39008   5.40032
 Alpha virt. eigenvalues --    5.41024   5.42037   5.43294   5.45483   5.46974
 Alpha virt. eigenvalues --    5.47800   5.48368   5.48459   5.53744   5.53750
 Alpha virt. eigenvalues --    5.54492   5.55340   5.56584   5.56638   5.58139
 Alpha virt. eigenvalues --    5.59296   5.59866   5.60070   5.61404   5.61758
 Alpha virt. eigenvalues --    5.63533   5.63840   5.63889   5.65509   5.65599
 Alpha virt. eigenvalues --    5.66451   5.67622   5.75562   5.75827   5.80154
 Alpha virt. eigenvalues --    5.81153   5.93425   5.95952   5.97699   6.01149
 Alpha virt. eigenvalues --    6.04407   6.11203   6.22370   6.31026   6.93652
 Alpha virt. eigenvalues --    6.93854   6.96998   6.97838   6.98799   6.99275
 Alpha virt. eigenvalues --    7.05244   7.11483   7.17169   7.21604   7.24241
 Alpha virt. eigenvalues --    7.25940   7.33479   7.34727   8.43695   8.44805
 Alpha virt. eigenvalues --    8.55857   8.57923   8.81576   8.86732   8.89892
 Alpha virt. eigenvalues --    8.90113   8.91698   8.99468  15.87563  22.82086
 Alpha virt. eigenvalues --   22.87459  23.16436  23.30239  23.32168  23.47677
 Alpha virt. eigenvalues --   23.50703  23.58252  23.65264  23.65325  23.70693
 Alpha virt. eigenvalues --   23.72426  23.75113  23.81884  23.88893  24.17190
 Alpha virt. eigenvalues --   32.35893  33.11351  33.25838  57.30671  57.54077
          Condensed to atoms (all electrons):
               1          2          3          4          5          6
     1  C    5.044987   0.254976  -0.068337  -0.005026   0.020777  -0.000205
     2  C    0.254976   5.159364   0.419489  -0.061735  -0.066818   0.003734
     3  C   -0.068337   0.419489   5.450021   0.276679   0.250089  -0.047511
     4  C   -0.005026  -0.061735   0.276679   5.005625  -0.055947  -0.019486
     5  C    0.020777  -0.066818   0.250089  -0.055947   5.665544   0.289746
     6  C   -0.000205   0.003734  -0.047511  -0.019486   0.289746   5.057203
     7  C    0.007759  -0.125137  -0.060201   0.017080   0.151462  -0.126772
     8  N   -0.053436   0.450211  -0.114518   0.004320  -0.118625   0.002996
     9  B   -0.017805  -0.028290   0.001964   0.000704   0.001268   0.000834
    10  F   -0.001879  -0.006018  -0.000280   0.000024  -0.000097   0.000005
    11  F   -0.017288   0.005363   0.000823   0.000018  -0.000492   0.000004
    12  N   -0.001030   0.000380  -0.001850  -0.000005   0.002004   0.000108
    13  C   -0.000320  -0.001193   0.000134   0.000002  -0.000314   0.000006
    14  C   -0.000040  -0.000319   0.000011   0.000000  -0.000012  -0.000000
    15  C    0.000011   0.000134  -0.000057  -0.000000   0.000590   0.000008
    16  C    0.000000   0.000002  -0.000000  -0.000000   0.000004   0.000000
    17  C   -0.000012  -0.000314   0.000590   0.000004  -0.004004  -0.000628
    18  C   -0.000000   0.000006   0.000008   0.000000  -0.000628  -0.000146
    19  C    0.000355  -0.006395   0.001380   0.000119   0.042633   0.005094
    20  C   -0.001838   0.001228   0.017495  -0.000944  -0.028009   0.016765
    21  C   -0.000060   0.001168  -0.002483   0.000101  -0.064132  -0.008464
    22  N   -0.000001  -0.000013   0.000171   0.000002  -0.002907  -0.001496
    23  H    0.408015  -0.040096   0.002944  -0.000513  -0.001468   0.000003
    24  H    0.436670  -0.034941  -0.025057   0.000665   0.005817   0.000045
    25  H    0.418042  -0.044376   0.014438   0.000330  -0.003457  -0.000031
    26  H    0.000242  -0.012073  -0.043154   0.418547   0.005458   0.000966
    27  H    0.000023   0.010361  -0.039411   0.438604  -0.024647  -0.010714
    28  H   -0.003772  -0.011154  -0.047705   0.424491   0.012046   0.000635
    29  H   -0.000006  -0.000452   0.003939   0.000157  -0.044753   0.437824
    30  H   -0.000005  -0.000753   0.003604   0.000602  -0.045421   0.436049
    31  H    0.000056   0.002485  -0.023250  -0.003987  -0.033518   0.410754
    32  H   -0.000014   0.000013   0.000001   0.000000  -0.000002   0.000000
    33  H   -0.000034  -0.000014   0.000003  -0.000000   0.000010   0.000000
    34  H    0.000002   0.000004  -0.000000  -0.000000  -0.000000  -0.000000
    35  H    0.000000  -0.000000   0.000000   0.000000  -0.000000  -0.000000
    36  H   -0.000000  -0.000000   0.000000   0.000000  -0.000000  -0.000000
    37  H    0.000000   0.000000  -0.000000  -0.000000   0.000000   0.000000
    38  H    0.000000  -0.000003   0.000003   0.000000  -0.000039   0.000000
    39  H    0.000000   0.000000  -0.000000  -0.000000   0.000009   0.000001
    40  H   -0.000000  -0.000002   0.000002   0.000000  -0.000051   0.000001
               7          8          9         10         11         12
     1  C    0.007759  -0.053436  -0.017805  -0.001879  -0.017288  -0.001030
     2  C   -0.125137   0.450211  -0.028290  -0.006018   0.005363   0.000380
     3  C   -0.060201  -0.114518   0.001964  -0.000280   0.000823  -0.001850
     4  C    0.017080   0.004320   0.000704   0.000024   0.000018  -0.000005
     5  C    0.151462  -0.118625   0.001268  -0.000097  -0.000492   0.002004
     6  C   -0.126772   0.002996   0.000834   0.000005   0.000004   0.000108
     7  C    5.592876   0.375308  -0.056261  -0.008290  -0.007109  -0.026124
     8  N    0.375308   6.374518   0.351332  -0.034711  -0.038382  -0.037890
     9  B   -0.056261   0.351332   3.383678   0.367533   0.355012   0.351341
    10  F   -0.008290  -0.034711   0.367533   9.109747  -0.032094  -0.034714
    11  F   -0.007109  -0.038382   0.355012  -0.032094   9.121573  -0.038373
    12  N   -0.026124  -0.037890   0.351341  -0.034714  -0.038373   6.374443
    13  C   -0.006403   0.000381  -0.028288  -0.006025   0.005365   0.450228
    14  C    0.000354  -0.001030  -0.017802  -0.001857  -0.017292  -0.053426
    15  C    0.001386  -0.001851   0.001955  -0.000283   0.000826  -0.114527
    16  C    0.000119  -0.000005   0.000704   0.000024   0.000018   0.004319
    17  C    0.042627   0.002007   0.001277  -0.000094  -0.000496  -0.118590
    18  C    0.005093   0.000108   0.000834   0.000005   0.000004   0.002996
    19  C   -0.036153  -0.026130  -0.056264  -0.008289  -0.007110   0.375292
    20  C    0.258490  -0.037070  -0.004516   0.006977   0.006468  -0.037072
    21  C   -0.079464   0.010676   0.013947   0.000286   0.000315   0.010674
    22  N    0.005695  -0.000140   0.000134   0.000000   0.000000  -0.000140
    23  H    0.000693  -0.002918  -0.002024   0.002595  -0.000127   0.000134
    24  H   -0.001993   0.005593   0.003220   0.000322   0.000162   0.000028
    25  H    0.001601  -0.009926  -0.003479  -0.003807   0.006646  -0.000399
    26  H   -0.001947   0.000093  -0.000028  -0.000004   0.000001  -0.000000
    27  H    0.007936  -0.000458  -0.000004  -0.000000  -0.000000   0.000000
    28  H   -0.002060   0.000189  -0.000048   0.000000  -0.000004  -0.000000
    29  H   -0.024304   0.000066  -0.000026  -0.000001   0.000000  -0.000002
    30  H   -0.021841   0.000124   0.000014   0.000000  -0.000001   0.000003
    31  H    0.031044  -0.000283  -0.000004  -0.000000  -0.000000  -0.000002
    32  H   -0.000159   0.000134  -0.002022   0.002590  -0.000126  -0.002914
    33  H    0.000072  -0.000400  -0.003479  -0.003813   0.006646  -0.009936
    34  H   -0.000001   0.000028   0.003220   0.000322   0.000162   0.005593
    35  H   -0.000003  -0.000000  -0.000028  -0.000004   0.000001   0.000093
    36  H    0.000005  -0.000000  -0.000048   0.000000  -0.000004   0.000190
    37  H   -0.000014   0.000000  -0.000004  -0.000000  -0.000000  -0.000458
    38  H    0.000323  -0.000002  -0.000026  -0.000001   0.000000   0.000067
    39  H   -0.000182  -0.000002  -0.000004  -0.000000  -0.000000  -0.000283
    40  H    0.000449   0.000003   0.000014   0.000000  -0.000001   0.000124
              13         14         15         16         17         18
     1  C   -0.000320  -0.000040   0.000011   0.000000  -0.000012  -0.000000
     2  C   -0.001193  -0.000319   0.000134   0.000002  -0.000314   0.000006
     3  C    0.000134   0.000011  -0.000057  -0.000000   0.000590   0.000008
     4  C    0.000002   0.000000  -0.000000  -0.000000   0.000004   0.000000
     5  C   -0.000314  -0.000012   0.000590   0.000004  -0.004004  -0.000628
     6  C    0.000006  -0.000000   0.000008   0.000000  -0.000628  -0.000146
     7  C   -0.006403   0.000354   0.001386   0.000119   0.042627   0.005093
     8  N    0.000381  -0.001030  -0.001851  -0.000005   0.002007   0.000108
     9  B   -0.028288  -0.017802   0.001955   0.000704   0.001277   0.000834
    10  F   -0.006025  -0.001857  -0.000283   0.000024  -0.000094   0.000005
    11  F    0.005365  -0.017292   0.000826   0.000018  -0.000496   0.000004
    12  N    0.450228  -0.053426  -0.114527   0.004319  -0.118590   0.002996
    13  C    5.159268   0.255015   0.419490  -0.061719  -0.066847   0.003734
    14  C    0.255015   5.044925  -0.068349  -0.005041   0.020769  -0.000205
    15  C    0.419490  -0.068349   5.450030   0.276675   0.250109  -0.047508
    16  C   -0.061719  -0.005041   0.276675   5.005614  -0.055944  -0.019490
    17  C   -0.066847   0.020769   0.250109  -0.055944   5.665553   0.289754
    18  C    0.003734  -0.000205  -0.047508  -0.019490   0.289754   5.057201
    19  C   -0.125132   0.007758  -0.060154   0.017082   0.151379  -0.126786
    20  C    0.001246  -0.001837   0.017466  -0.000944  -0.027987   0.016775
    21  C    0.001169  -0.000060  -0.002482   0.000101  -0.064131  -0.008468
    22  N   -0.000013  -0.000001   0.000172   0.000002  -0.002908  -0.001496
    23  H    0.000013  -0.000014   0.000001   0.000000  -0.000002   0.000000
    24  H    0.000004   0.000002  -0.000000  -0.000000  -0.000000  -0.000000
    25  H   -0.000013  -0.000034   0.000003  -0.000000   0.000010   0.000000
    26  H   -0.000000   0.000000   0.000000   0.000000  -0.000000  -0.000000
    27  H    0.000000   0.000000  -0.000000  -0.000000   0.000000   0.000000
    28  H   -0.000000  -0.000000   0.000000   0.000000  -0.000000  -0.000000
    29  H   -0.000003   0.000000   0.000003   0.000000  -0.000040   0.000000
    30  H   -0.000002  -0.000000   0.000002   0.000000  -0.000051   0.000001
    31  H    0.000000   0.000000  -0.000000  -0.000000   0.000009   0.000001
    32  H   -0.040098   0.408030   0.002919  -0.000516  -0.001457   0.000003
    33  H   -0.044354   0.418019   0.014459   0.000331  -0.003465  -0.000031
    34  H   -0.034931   0.436666  -0.025061   0.000666   0.005815   0.000045
    35  H   -0.012077   0.000246  -0.043158   0.418542   0.005467   0.000964
    36  H   -0.011140  -0.003781  -0.047710   0.424492   0.012044   0.000636
    37  H    0.010358   0.000023  -0.039411   0.438605  -0.024647  -0.010712
    38  H   -0.000450  -0.000006   0.003902   0.000159  -0.044796   0.437820
    39  H    0.002485   0.000056  -0.023247  -0.003986  -0.033519   0.410750
    40  H   -0.000755  -0.000005   0.003640   0.000600  -0.045374   0.436049
              19         20         21         22         23         24
     1  C    0.000355  -0.001838  -0.000060  -0.000001   0.408015   0.436670
     2  C   -0.006395   0.001228   0.001168  -0.000013  -0.040096  -0.034941
     3  C    0.001380   0.017495  -0.002483   0.000171   0.002944  -0.025057
     4  C    0.000119  -0.000944   0.000101   0.000002  -0.000513   0.000665
     5  C    0.042633  -0.028009  -0.064132  -0.002907  -0.001468   0.005817
     6  C    0.005094   0.016765  -0.008464  -0.001496   0.000003   0.000045
     7  C   -0.036153   0.258490  -0.079464   0.005695   0.000693  -0.001993
     8  N   -0.026130  -0.037070   0.010676  -0.000140  -0.002918   0.005593
     9  B   -0.056264  -0.004516   0.013947   0.000134  -0.002024   0.003220
    10  F   -0.008289   0.006977   0.000286   0.000000   0.002595   0.000322
    11  F   -0.007110   0.006468   0.000315   0.000000  -0.000127   0.000162
    12  N    0.375292  -0.037072   0.010674  -0.000140   0.000134   0.000028
    13  C   -0.125132   0.001246   0.001169  -0.000013   0.000013   0.000004
    14  C    0.007758  -0.001837  -0.000060  -0.000001  -0.000014   0.000002
    15  C   -0.060154   0.017466  -0.002482   0.000172   0.000001  -0.000000
    16  C    0.017082  -0.000944   0.000101   0.000002   0.000000  -0.000000
    17  C    0.151379  -0.027987  -0.064131  -0.002908  -0.000002  -0.000000
    18  C   -0.126786   0.016775  -0.008468  -0.001496   0.000000  -0.000000
    19  C    5.592863   0.258556  -0.079470   0.005695  -0.000159  -0.000001
    20  C    0.258556   5.236705   0.134287  -0.043470   0.000244   0.000005
    21  C   -0.079470   0.134287   5.496005   0.919756   0.000001   0.000002
    22  N    0.005695  -0.043470   0.919756   6.163867  -0.000000   0.000000
    23  H   -0.000159   0.000244   0.000001  -0.000000   0.511785  -0.020048
    24  H   -0.000001   0.000005   0.000002   0.000000  -0.020048   0.513705
    25  H    0.000073  -0.000165  -0.000001  -0.000000  -0.023452  -0.020082
    26  H   -0.000003  -0.000024  -0.000011  -0.000000   0.000756  -0.003063
    27  H   -0.000014  -0.000050   0.000077   0.000001  -0.000020   0.000140
    28  H    0.000005  -0.000006  -0.000009  -0.000000  -0.000101  -0.000685
    29  H    0.000331   0.005584  -0.008000  -0.001852  -0.000001   0.000001
    30  H    0.000440   0.004574  -0.007595  -0.001821  -0.000000  -0.000000
    31  H   -0.000182  -0.003778   0.002136   0.000314  -0.000000  -0.000001
    32  H    0.000687   0.000242   0.000001  -0.000000  -0.000018   0.000000
    33  H    0.001607  -0.000164  -0.000001  -0.000000   0.000019  -0.000000
    34  H   -0.001993   0.000005   0.000002   0.000000   0.000000  -0.000000
    35  H   -0.001945  -0.000024  -0.000011  -0.000000  -0.000000   0.000000
    36  H   -0.002063  -0.000006  -0.000009  -0.000000   0.000000  -0.000000
    37  H    0.007936  -0.000050   0.000077   0.000001   0.000000   0.000000
    38  H   -0.024224   0.005550  -0.007976  -0.001853   0.000000  -0.000000
    39  H    0.031044  -0.003777   0.002136   0.000314  -0.000000   0.000000
    40  H   -0.021916   0.004607  -0.007619  -0.001819  -0.000000   0.000000
              25         26         27         28         29         30
     1  C    0.418042   0.000242   0.000023  -0.003772  -0.000006  -0.000005
     2  C   -0.044376  -0.012073   0.010361  -0.011154  -0.000452  -0.000753
     3  C    0.014438  -0.043154  -0.039411  -0.047705   0.003939   0.003604
     4  C    0.000330   0.418547   0.438604   0.424491   0.000157   0.000602
     5  C   -0.003457   0.005458  -0.024647   0.012046  -0.044753  -0.045421
     6  C   -0.000031   0.000966  -0.010714   0.000635   0.437824   0.436049
     7  C    0.001601  -0.001947   0.007936  -0.002060  -0.024304  -0.021841
     8  N   -0.009926   0.000093  -0.000458   0.000189   0.000066   0.000124
     9  B   -0.003479  -0.000028  -0.000004  -0.000048  -0.000026   0.000014
    10  F   -0.003807  -0.000004  -0.000000   0.000000  -0.000001   0.000000
    11  F    0.006646   0.000001  -0.000000  -0.000004   0.000000  -0.000001
    12  N   -0.000399  -0.000000   0.000000  -0.000000  -0.000002   0.000003
    13  C   -0.000013  -0.000000   0.000000  -0.000000  -0.000003  -0.000002
    14  C   -0.000034   0.000000   0.000000  -0.000000   0.000000  -0.000000
    15  C    0.000003   0.000000  -0.000000   0.000000   0.000003   0.000002
    16  C   -0.000000   0.000000  -0.000000   0.000000   0.000000   0.000000
    17  C    0.000010  -0.000000   0.000000  -0.000000  -0.000040  -0.000051
    18  C    0.000000  -0.000000   0.000000  -0.000000   0.000000   0.000001
    19  C    0.000073  -0.000003  -0.000014   0.000005   0.000331   0.000440
    20  C   -0.000165  -0.000024  -0.000050  -0.000006   0.005584   0.004574
    21  C   -0.000001  -0.000011   0.000077  -0.000009  -0.008000  -0.007595
    22  N   -0.000000  -0.000000   0.000001  -0.000000  -0.001852  -0.001821
    23  H   -0.023452   0.000756  -0.000020  -0.000101  -0.000001  -0.000000
    24  H   -0.020082  -0.003063   0.000140  -0.000685   0.000001  -0.000000
    25  H    0.512904  -0.000122   0.000008   0.000232  -0.000000  -0.000000
    26  H   -0.000122   0.532191  -0.019139  -0.033619   0.000197  -0.000104
    27  H    0.000008  -0.019139   0.538068  -0.023183   0.000121   0.000102
    28  H    0.000232  -0.033619  -0.023183   0.542402  -0.000081   0.000129
    29  H   -0.000000   0.000197   0.000121  -0.000081   0.523806  -0.035471
    30  H   -0.000000  -0.000104   0.000102   0.000129  -0.035471   0.525367
    31  H    0.000001  -0.000109   0.000898   0.000153  -0.017995  -0.017293
    32  H    0.000019  -0.000000   0.000000   0.000000   0.000000  -0.000000
    33  H   -0.000059   0.000000  -0.000000  -0.000000  -0.000000   0.000000
    34  H   -0.000000   0.000000   0.000000  -0.000000  -0.000000   0.000000
    35  H    0.000000  -0.000000   0.000000   0.000000   0.000000  -0.000000
    36  H   -0.000000   0.000000  -0.000000  -0.000000  -0.000000   0.000000
    37  H   -0.000000   0.000000  -0.000000  -0.000000  -0.000000   0.000000
    38  H   -0.000000   0.000000  -0.000000  -0.000000  -0.000005   0.000004
    39  H   -0.000000   0.000000   0.000000   0.000000  -0.000000  -0.000000
    40  H    0.000000  -0.000000   0.000000   0.000000   0.000004  -0.000005
              31         32         33         34         35         36
     1  C    0.000056  -0.000014  -0.000034   0.000002   0.000000  -0.000000
     2  C    0.002485   0.000013  -0.000014   0.000004  -0.000000  -0.000000
     3  C   -0.023250   0.000001   0.000003  -0.000000   0.000000   0.000000
     4  C   -0.003987   0.000000  -0.000000  -0.000000   0.000000   0.000000
     5  C   -0.033518  -0.000002   0.000010  -0.000000  -0.000000  -0.000000
     6  C    0.410754   0.000000   0.000000  -0.000000  -0.000000  -0.000000
     7  C    0.031044  -0.000159   0.000072  -0.000001  -0.000003   0.000005
     8  N   -0.000283   0.000134  -0.000400   0.000028  -0.000000  -0.000000
     9  B   -0.000004  -0.002022  -0.003479   0.003220  -0.000028  -0.000048
    10  F   -0.000000   0.002590  -0.003813   0.000322  -0.000004   0.000000
    11  F   -0.000000  -0.000126   0.006646   0.000162   0.000001  -0.000004
    12  N   -0.000002  -0.002914  -0.009936   0.005593   0.000093   0.000190
    13  C    0.000000  -0.040098  -0.044354  -0.034931  -0.012077  -0.011140
    14  C    0.000000   0.408030   0.418019   0.436666   0.000246  -0.003781
    15  C   -0.000000   0.002919   0.014459  -0.025061  -0.043158  -0.047710
    16  C   -0.000000  -0.000516   0.000331   0.000666   0.418542   0.424492
    17  C    0.000009  -0.001457  -0.003465   0.005815   0.005467   0.012044
    18  C    0.000001   0.000003  -0.000031   0.000045   0.000964   0.000636
    19  C   -0.000182   0.000687   0.001607  -0.001993  -0.001945  -0.002063
    20  C   -0.003778   0.000242  -0.000164   0.000005  -0.000024  -0.000006
    21  C    0.002136   0.000001  -0.000001   0.000002  -0.000011  -0.000009
    22  N    0.000314  -0.000000  -0.000000   0.000000  -0.000000  -0.000000
    23  H   -0.000000  -0.000018   0.000019   0.000000  -0.000000   0.000000
    24  H   -0.000001   0.000000  -0.000000  -0.000000   0.000000  -0.000000
    25  H    0.000001   0.000019  -0.000059  -0.000000   0.000000  -0.000000
    26  H   -0.000109  -0.000000   0.000000   0.000000  -0.000000   0.000000
    27  H    0.000898   0.000000  -0.000000   0.000000   0.000000  -0.000000
    28  H    0.000153   0.000000  -0.000000  -0.000000   0.000000  -0.000000
    29  H   -0.017995   0.000000  -0.000000  -0.000000   0.000000  -0.000000
    30  H   -0.017293  -0.000000   0.000000   0.000000  -0.000000   0.000000
    31  H    0.530192  -0.000000  -0.000000   0.000000   0.000000   0.000000
    32  H   -0.000000   0.511779  -0.023441  -0.020050   0.000757  -0.000101
    33  H   -0.000000  -0.023441   0.512913  -0.020086  -0.000122   0.000231
    34  H    0.000000  -0.020050  -0.020086   0.513703  -0.003062  -0.000682
    35  H    0.000000   0.000757  -0.000122  -0.003062   0.532183  -0.033615
    36  H    0.000000  -0.000101   0.000231  -0.000682  -0.033615   0.542403
    37  H    0.000000  -0.000020   0.000008   0.000140  -0.019143  -0.023180
    38  H   -0.000000  -0.000001  -0.000000   0.000001   0.000197  -0.000081
    39  H   -0.000000  -0.000000   0.000001  -0.000001  -0.000109   0.000153
    40  H   -0.000000  -0.000000  -0.000000  -0.000000  -0.000104   0.000129
              37         38         39         40
     1  C    0.000000   0.000000   0.000000  -0.000000
     2  C    0.000000  -0.000003   0.000000  -0.000002
     3  C   -0.000000   0.000003  -0.000000   0.000002
     4  C   -0.000000   0.000000  -0.000000   0.000000
     5  C    0.000000  -0.000039   0.000009  -0.000051
     6  C    0.000000   0.000000   0.000001   0.000001
     7  C   -0.000014   0.000323  -0.000182   0.000449
     8  N    0.000000  -0.000002  -0.000002   0.000003
     9  B   -0.000004  -0.000026  -0.000004   0.000014
    10  F   -0.000000  -0.000001  -0.000000   0.000000
    11  F   -0.000000   0.000000  -0.000000  -0.000001
    12  N   -0.000458   0.000067  -0.000283   0.000124
    13  C    0.010358  -0.000450   0.002485  -0.000755
    14  C    0.000023  -0.000006   0.000056  -0.000005
    15  C   -0.039411   0.003902  -0.023247   0.003640
    16  C    0.438605   0.000159  -0.003986   0.000600
    17  C   -0.024647  -0.044796  -0.033519  -0.045374
    18  C   -0.010712   0.437820   0.410750   0.436049
    19  C    0.007936  -0.024224   0.031044  -0.021916
    20  C   -0.000050   0.005550  -0.003777   0.004607
    21  C    0.000077  -0.007976   0.002136  -0.007619
    22  N    0.000001  -0.001853   0.000314  -0.001819
    23  H    0.000000   0.000000  -0.000000  -0.000000
    24  H    0.000000  -0.000000   0.000000   0.000000
    25  H   -0.000000  -0.000000  -0.000000   0.000000
    26  H    0.000000   0.000000   0.000000  -0.000000
    27  H   -0.000000  -0.000000   0.000000   0.000000
    28  H   -0.000000  -0.000000   0.000000   0.000000
    29  H   -0.000000  -0.000005  -0.000000   0.000004
    30  H    0.000000   0.000004  -0.000000  -0.000005
    31  H    0.000000  -0.000000  -0.000000  -0.000000
    32  H   -0.000020  -0.000001  -0.000000  -0.000000
    33  H    0.000008  -0.000000   0.000001  -0.000000
    34  H    0.000140   0.000001  -0.000001  -0.000000
    35  H   -0.019143   0.000197  -0.000109  -0.000104
    36  H   -0.023180  -0.000081   0.000153   0.000129
    37  H    0.538057   0.000120   0.000901   0.000103
    38  H    0.000120   0.523743  -0.017973  -0.035470
    39  H    0.000901  -0.017973   0.530184  -0.017313
    40  H    0.000103  -0.035470  -0.017313   0.525427
 Mulliken charges:
               1
     1  C   -0.420805
     2  C    0.131178
     3  C    0.030023
     4  C   -0.440432
     5  C    0.047887
     6  C   -0.447328
     7  C    0.084043
     8  N   -0.100312
     9  B    0.381466
    10  F   -0.348171
    11  F   -0.350509
    12  N   -0.100283
    13  C    0.131178
    14  C   -0.420763
    15  C    0.030017
    16  C   -0.440415
    17  C    0.047890
    18  C   -0.447319
    19  C    0.084053
    20  C    0.198461
    21  C   -0.252472
    22  N   -0.036193
    23  H    0.163757
    24  H    0.139491
    25  H    0.155098
    26  H    0.154950
    27  H    0.121301
    28  H    0.142147
    29  H    0.160957
    30  H    0.159344
    31  H    0.122360
    32  H    0.163763
    33  H    0.155079
    34  H    0.139494
    35  H    0.154957
    36  H    0.142137
    37  H    0.121310
    38  H    0.161017
    39  H    0.122363
    40  H    0.159281
 Sum of Mulliken charges =  -0.00000
 Mulliken charges with hydrogens summed into heavy atoms:
               1
     1  C    0.037541
     2  C    0.131178
     3  C    0.030023
     4  C   -0.022033
     5  C    0.047887
     6  C   -0.004667
     7  C    0.084043
     8  N   -0.100312
     9  B    0.381466
    10  F   -0.348171
    11  F   -0.350509
    12  N   -0.100283
    13  C    0.131178
    14  C    0.037573
    15  C    0.030017
    16  C   -0.022012
    17  C    0.047890
    18  C   -0.004657
    19  C    0.084053
    20  C    0.198461
    21  C   -0.252472
    22  N   -0.036193
 Electronic spatial extent (au):  <R**2>=           6547.0451
 Charge=             -0.0000 electrons
 Dipole moment (field-independent basis, Debye):
    X=             -0.0014    Y=             -0.0692    Z=             -0.3494  Tot=              0.3562
 Quadrupole moment (field-independent basis, Debye-Ang):
   XX=            -88.6125   YY=           -144.3816   ZZ=           -133.9993
   XY=              0.0013   XZ=              0.0013   YZ=              0.4553
 Traceless Quadrupole moment (field-independent basis, Debye-Ang):
   XX=             33.7186   YY=            -22.0505   ZZ=            -11.6681
   XY=              0.0013   XZ=              0.0013   YZ=              0.4553
 Octapole moment (field-independent basis, Debye-Ang**2):
  XXX=             -0.0192  YYY=           -105.1698  ZZZ=             -2.0845  XYY=             -0.0035
  XXY=            -23.6476  XXZ=             -1.2762  XZZ=             -0.0029  YZZ=             -3.7987
  YYZ=             -0.8420  XYZ=             -0.0044
 Hexadecapole moment (field-independent basis, Debye-Ang**3):
 XXXX=          -4930.1106 YYYY=          -3384.6413 ZZZZ=           -264.2835 XXXY=              0.0142
 XXXZ=             -0.0180 YYYX=              0.0090 YYYZ=             -2.2354 ZZZX=              0.0164
 ZZZY=              4.5484 XXYY=          -1257.7759 XXZZ=           -999.9582 YYZZ=           -545.8409
 XXYZ=              0.2975 YYXZ=              0.0047 ZZXY=              0.0023
 N-N= 1.832535517441D+03 E-N=-6.021193377324D+03  KE= 1.004117172354D+03
 No NMR shielding tensors so no spin-rotation constants.
 Leave Link  601 at Sat Nov  8 10:30:09 2025, MaxMem= 30870077440 cpu:              63.6 elap:               1.2
 (Enter /public/software/gauss/g16/l9999.exe)
 1\1\GINC-CU303\SP\RM062X\def2TZVPP\C16H18B1F2N3\BAIDING\08-Nov-2025\0\
 \#p M062X/DEF2TZVPP scrf=(solvent=water) em=GD3\\Energy calculation fo
 r M97692510\\0,1\C,0,2.928528,-2.542997,-0.029943\C,0,2.538326,-1.1057
 73,-0.005193\C,0,3.396759,0.02542,-0.015117\C,0,4.894043,-0.051602,-0.
 042827\C,0,2.586258,1.162339,-0.00303\C,0,3.044545,2.587481,-0.005965\
 C,0,1.231974,0.692538,0.011271\N,0,1.247729,-0.701434,0.010394\B,0,0.0
 00008,-1.626126,0.034413\F,0,0.000094,-2.46779,-1.082723\F,0,-0.000061
 ,-2.403666,1.202124\N,0,-1.247741,-0.701462,0.010191\C,0,-2.538315,-1.
 105765,-0.005318\C,0,-2.928566,-2.542972,-0.030332\C,0,-3.396761,0.025
 462,-0.015078\C,0,-4.89404,-0.051633,-0.042792\C,0,-2.586257,1.162338,
 -0.002867\C,0,-3.044533,2.587493,-0.005662\C,0,-1.231959,0.692539,0.01
 1223\C,0,-0.000005,1.36793,0.01589\C,0,0.,2.79949,0.015693\N,0,-0.0000
 19,3.964145,0.016311\H,0,2.748033,-2.975901,-1.021162\H,0,3.988115,-2.
 657688,0.203625\H,0,2.339958,-3.119652,0.688274\H,0,5.256508,-0.492705
 ,-0.978828\H,0,5.349344,0.936255,0.053298\H,0,5.276999,-0.673349,0.774
 049\H,0,2.682594,3.127344,-0.887324\H,0,2.684427,3.13063,0.873899\H,0,
 4.13464,2.640718,-0.007983\H,0,-2.748512,-2.975515,-1.021791\H,0,-2.33
 9729,-3.119883,0.687449\H,0,-3.988062,-2.657716,0.203627\H,0,-5.256478
 ,-0.492432,-0.978944\H,0,-5.276927,-0.673689,0.773879\H,0,-5.349408,0.
 936159,0.053711\H,0,-2.683482,3.127107,-0.887556\H,0,-4.134629,2.64072
 9,-0.006567\H,0,-2.683493,3.130864,0.873671\\Version=ES64L-G16RevA.03\
 State=1-A\HF=-1009.5339662\RMSD=7.431e-09\Dipole=-0.0005614,-0.0272202
 ,-0.1374717\Quadrupole=25.0689571,-16.3939968,-8.6749604,0.0009727,0.0
 009345,0.3384748\PG=C01 [X(C16H18B1F2N3)]\\@


 ALMOST ANYTHING IS EASIER TO GET INTO THAN OUT OF.

                         -- AGNES ALLEN'S LAW FROM
                PAUL DICKSON'S "THE OFFICIAL RULES"
 Job cpu time:       0 days  5 hours 21 minutes  3.2 seconds.
 Elapsed time:       0 days  0 hours  5 minutes  5.9 seconds.
 File lengths (MBytes):  RWF=    594 Int=      0 D2E=      0 Chk=     52 Scr=      1
 Normal termination of Gaussian 16 at Sat Nov  8 10:30:10 2025.
