 Entering Gaussian System, Link 0=g16
 Input=M99948989_reduced_sp.gjf
 Output=M99948989_reduced_sp.log
 Initial command:
 /public/software/gauss/g16/l1.exe "/public/home/baiding/1101_v2_sp/tmp_M99948989_reduced_sp_1575143/Gau-1482449.inp" -scrdir="/public/home/baiding/1101_v2_sp/tmp_M99948989_reduced_sp_1575143/"
 Entering Link 1 = /public/software/gauss/g16/l1.exe PID=   1482450.
  
 Copyright (c) 1988,1990,1992,1993,1995,1998,2003,2009,2016,
            Gaussian, Inc.  All Rights Reserved.
  
 This is part of the Gaussian(R) 16 program.  It is based on
 the Gaussian(R) 09 system (copyright 2009, Gaussian, Inc.),
 the Gaussian(R) 03 system (copyright 2003, Gaussian, Inc.),
 the Gaussian(R) 98 system (copyright 1998, Gaussian, Inc.),
 the Gaussian(R) 94 system (copyright 1995, Gaussian, Inc.),
 the Gaussian 92(TM) system (copyright 1992, Gaussian, Inc.),
 the Gaussian 90(TM) system (copyright 1990, Gaussian, Inc.),
 the Gaussian 88(TM) system (copyright 1988, Gaussian, Inc.),
 the Gaussian 86(TM) system (copyright 1986, Carnegie Mellon
 University), and the Gaussian 82(TM) system (copyright 1983,
 Carnegie Mellon University). Gaussian is a federally registered
 trademark of Gaussian, Inc.
  
 This software contains proprietary and confidential information,
 including trade secrets, belonging to Gaussian, Inc.
  
 This software is provided under written license and may be
 used, copied, transmitted, or stored only in accord with that
 written license.
  
 The following legend is applicable only to US Government
 contracts under FAR:
  
                    RESTRICTED RIGHTS LEGEND
  
 Use, reproduction and disclosure by the US Government is
 subject to restrictions as set forth in subparagraphs (a)
 and (c) of the Commercial Computer Software - Restricted
 Rights clause in FAR 52.227-19.
  
 Gaussian, Inc.
 340 Quinnipiac St., Bldg. 40, Wallingford CT 06492
  
  
 ---------------------------------------------------------------
 Warning -- This program may not be used in any manner that
 competes with the business of Gaussian, Inc. or will provide
 assistance to any competitor of Gaussian, Inc.  The licensee
 of this program is prohibited from giving any competitor of
 Gaussian, Inc. access to this program.  By using this program,
 the user acknowledges that Gaussian, Inc. is engaged in the
 business of creating and licensing software in the field of
 computational chemistry and represents and warrants to the
 licensee that it is not a competitor of Gaussian, Inc. and that
 it will not use this program in any manner prohibited above.
 ---------------------------------------------------------------
  

 Cite this work as:
 Gaussian 16, Revision A.03,
 M. J. Frisch, G. W. Trucks, H. B. Schlegel, G. E. Scuseria, 
 M. A. Robb, J. R. Cheeseman, G. Scalmani, V. Barone, 
 G. A. Petersson, H. Nakatsuji, X. Li, M. Caricato, A. V. Marenich, 
 J. Bloino, B. G. Janesko, R. Gomperts, B. Mennucci, H. P. Hratchian, 
 J. V. Ortiz, A. F. Izmaylov, J. L. Sonnenberg, D. Williams-Young, 
 F. Ding, F. Lipparini, F. Egidi, J. Goings, B. Peng, A. Petrone, 
 T. Henderson, D. Ranasinghe, V. G. Zakrzewski, J. Gao, N. Rega, 
 G. Zheng, W. Liang, M. Hada, M. Ehara, K. Toyota, R. Fukuda, 
 J. Hasegawa, M. Ishida, T. Nakajima, Y. Honda, O. Kitao, H. Nakai, 
 T. Vreven, K. Throssell, J. A. Montgomery, Jr., J. E. Peralta, 
 F. Ogliaro, M. J. Bearpark, J. J. Heyd, E. N. Brothers, K. N. Kudin, 
 V. N. Staroverov, T. A. Keith, R. Kobayashi, J. Normand, 
 K. Raghavachari, A. P. Rendell, J. C. Burant, S. S. Iyengar, 
 J. Tomasi, M. Cossi, J. M. Millam, M. Klene, C. Adamo, R. Cammi, 
 J. W. Ochterski, R. L. Martin, K. Morokuma, O. Farkas, 
 J. B. Foresman, and D. J. Fox, Gaussian, Inc., Wallingford CT, 2016.
 
 ******************************************
 Gaussian 16:  ES64L-G16RevA.03 25-Dec-2016
                 8-Nov-2025 
 ******************************************
 %nprocshared=64
 Will use up to   64 processors via shared memory.
 %mem=230GB
 %chk=M99948989_reduced_sp.chk
 ----------------------------------------------
 #p M062X/DEF2TZVPP scrf=(solvent=water) em=GD3
 ----------------------------------------------
 1/38=1,172=1/1;
 2/12=2,17=6,18=5,40=1/2;
 3/5=44,7=202,11=2,25=1,30=1,70=2201,72=1,74=-55,124=31/1,2,3;
 4//1;
 5/5=2,38=5,53=1/2;
 6/7=2,8=2,9=2,10=2,28=1/1;
 99/5=1,9=1/99;
 Leave Link    1 at Sat Nov  8 10:30:10 2025, MaxMem= 30870077440 cpu:              18.5 elap:               0.3
 (Enter /public/software/gauss/g16/l101.exe)
 ----------------------------------------
 Energy calculation for M99948989_reduced
 ----------------------------------------
 Symbolic Z-matrix:
 Charge = -1 Multiplicity = 2
 S                    -3.63092  -0.69647  -0.08739 
 C                    -5.358    -0.32632  -0.03082 
 C                    -5.56266   1.05358   0.06003 
 C                    -4.386     1.79786   0.08489 
 C                    -3.21273   1.02024   0.01558 
 C                    -1.88825   1.51143   0.02974 
 C                    -0.7335    0.75014  -0.02599 
 C                     0.57767   1.26985  -0.01812 
 N                     1.71096   0.47314  -0.0137 
 C                     2.82845   1.30294  -0.03204 
 C                     4.11757   0.79252  -0.05124 
 C                     4.336    -0.60748  -0.07076 
 N                     3.25188  -1.47763  -0.01991 
 C                     3.73211  -2.75635  -0.08566 
 C                     5.12076  -2.72951  -0.18057 
 C                     5.51019  -1.37422  -0.16999 
 B                     1.7829   -1.0587    0.20049 
 F                     1.36435  -1.3966    1.5056 
 F                     0.9479   -1.73618  -0.71045 
 C                     2.3812    2.67128  -0.0531 
 C                     1.00479   2.63631  -0.04214 
 C                     3.27331   3.87231  -0.09644 
 C                    -6.34623  -1.34663  -0.07648 
 O                    -6.12562  -2.5724   -0.15982 
 H                    -6.55783   1.48384   0.1063 
 H                    -4.3476    2.87939   0.15337 
 H                    -1.80718   2.59435   0.097 
 H                    -0.82149  -0.33075  -0.09271 
 H                     4.96491   1.46791  -0.07559 
 H                     3.05997  -3.60305  -0.05927 
 H                     5.76653  -3.59454  -0.25411 
 H                     6.51392  -0.97565  -0.23836 
 H                     0.34322   3.49232  -0.06929 
 H                     3.94694   3.90447   0.76803 
 H                     3.90601   3.87144  -0.99199 
 H                     2.68504   4.79359  -0.10022 
 H                    -7.38564  -0.96831  -0.03137 
 
 ITRead=  0  0  0  0  0  0  0  0  0  0  0  0  0  0  0  0  0  0  0  0
 ITRead=  0  0  0  0  0  0  0  0  0  0  0  0  0  0  0  0  0
 MicOpt= -1 -1 -1 -1 -1 -1 -1 -1 -1 -1 -1 -1 -1 -1 -1 -1 -1 -1 -1 -1
 MicOpt= -1 -1 -1 -1 -1 -1 -1 -1 -1 -1 -1 -1 -1 -1 -1 -1 -1
 NAtoms=     37 NQM=       37 NQMF=       0 NMMI=      0 NMMIF=      0
                NMic=       0 NMicF=      0.
                    Isotopes and Nuclear Properties:
 (Nuclear quadrupole moments (NQMom) in fm**2, nuclear magnetic moments (NMagM)
  in nuclear magnetons)

  Atom         1           2           3           4           5           6           7           8           9          10
 IAtWgt=          32          12          12          12          12          12          12          12          14          12
 AtmWgt=  31.9720718  12.0000000  12.0000000  12.0000000  12.0000000  12.0000000  12.0000000  12.0000000  14.0030740  12.0000000
 NucSpn=           0           0           0           0           0           0           0           0           2           0
 AtZEff=  -0.0000000  -0.0000000  -0.0000000  -0.0000000  -0.0000000  -0.0000000  -0.0000000  -0.0000000  -0.0000000  -0.0000000
 NQMom=    0.0000000   0.0000000   0.0000000   0.0000000   0.0000000   0.0000000   0.0000000   0.0000000   2.0440000   0.0000000
 NMagM=    0.0000000   0.0000000   0.0000000   0.0000000   0.0000000   0.0000000   0.0000000   0.0000000   0.4037610   0.0000000
 AtZNuc=  16.0000000   6.0000000   6.0000000   6.0000000   6.0000000   6.0000000   6.0000000   6.0000000   7.0000000   6.0000000

  Atom        11          12          13          14          15          16          17          18          19          20
 IAtWgt=          12          12          14          12          12          12          11          19          19          12
 AtmWgt=  12.0000000  12.0000000  14.0030740  12.0000000  12.0000000  12.0000000  11.0093053  18.9984033  18.9984033  12.0000000
 NucSpn=           0           0           2           0           0           0           3           1           1           0
 AtZEff=  -0.0000000  -0.0000000  -0.0000000  -0.0000000  -0.0000000  -0.0000000  -0.0000000  -0.0000000  -0.0000000  -0.0000000
 NQMom=    0.0000000   0.0000000   2.0440000   0.0000000   0.0000000   0.0000000   4.0590000   0.0000000   0.0000000   0.0000000
 NMagM=    0.0000000   0.0000000   0.4037610   0.0000000   0.0000000   0.0000000   2.6886370   2.6288670   2.6288670   0.0000000
 AtZNuc=   6.0000000   6.0000000   7.0000000   6.0000000   6.0000000   6.0000000   5.0000000   9.0000000   9.0000000   6.0000000

  Atom        21          22          23          24          25          26          27          28          29          30
 IAtWgt=          12          12          12          16           1           1           1           1           1           1
 AtmWgt=  12.0000000  12.0000000  12.0000000  15.9949146   1.0078250   1.0078250   1.0078250   1.0078250   1.0078250   1.0078250
 NucSpn=           0           0           0           0           1           1           1           1           1           1
 AtZEff=  -0.0000000  -0.0000000  -0.0000000  -0.0000000  -0.0000000  -0.0000000  -0.0000000  -0.0000000  -0.0000000  -0.0000000
 NQMom=    0.0000000   0.0000000   0.0000000   0.0000000   0.0000000   0.0000000   0.0000000   0.0000000   0.0000000   0.0000000
 NMagM=    0.0000000   0.0000000   0.0000000   0.0000000   2.7928460   2.7928460   2.7928460   2.7928460   2.7928460   2.7928460
 AtZNuc=   6.0000000   6.0000000   6.0000000   8.0000000   1.0000000   1.0000000   1.0000000   1.0000000   1.0000000   1.0000000

  Atom        31          32          33          34          35          36          37
 IAtWgt=           1           1           1           1           1           1           1
 AtmWgt=   1.0078250   1.0078250   1.0078250   1.0078250   1.0078250   1.0078250   1.0078250
 NucSpn=           1           1           1           1           1           1           1
 AtZEff=  -0.0000000  -0.0000000  -0.0000000  -0.0000000  -0.0000000  -0.0000000  -0.0000000
 NQMom=    0.0000000   0.0000000   0.0000000   0.0000000   0.0000000   0.0000000   0.0000000
 NMagM=    2.7928460   2.7928460   2.7928460   2.7928460   2.7928460   2.7928460   2.7928460
 AtZNuc=   1.0000000   1.0000000   1.0000000   1.0000000   1.0000000   1.0000000   1.0000000
 Leave Link  101 at Sat Nov  8 10:30:10 2025, MaxMem= 30870077440 cpu:               3.5 elap:               0.1
 (Enter /public/software/gauss/g16/l202.exe)
                          Input orientation:                          
 ---------------------------------------------------------------------
 Center     Atomic      Atomic             Coordinates (Angstroms)
 Number     Number       Type             X           Y           Z
 ---------------------------------------------------------------------
      1         16           0       -3.630916   -0.696473   -0.087387
      2          6           0       -5.358003   -0.326316   -0.030820
      3          6           0       -5.562665    1.053579    0.060030
      4          6           0       -4.385995    1.797864    0.084892
      5          6           0       -3.212725    1.020240    0.015580
      6          6           0       -1.888251    1.511427    0.029743
      7          6           0       -0.733501    0.750140   -0.025994
      8          6           0        0.577666    1.269850   -0.018123
      9          7           0        1.710963    0.473136   -0.013701
     10          6           0        2.828450    1.302941   -0.032035
     11          6           0        4.117572    0.792517   -0.051242
     12          6           0        4.336001   -0.607483   -0.070755
     13          7           0        3.251884   -1.477627   -0.019908
     14          6           0        3.732112   -2.756353   -0.085662
     15          6           0        5.120757   -2.729514   -0.180569
     16          6           0        5.510194   -1.374218   -0.169987
     17          5           0        1.782904   -1.058699    0.200488
     18          9           0        1.364352   -1.396599    1.505600
     19          9           0        0.947902   -1.736184   -0.710448
     20          6           0        2.381201    2.671278   -0.053097
     21          6           0        1.004785    2.636313   -0.042141
     22          6           0        3.273310    3.872311   -0.096435
     23          6           0       -6.346226   -1.346631   -0.076481
     24          8           0       -6.125622   -2.572396   -0.159824
     25          1           0       -6.557828    1.483842    0.106296
     26          1           0       -4.347605    2.879392    0.153365
     27          1           0       -1.807183    2.594354    0.097004
     28          1           0       -0.821487   -0.330750   -0.092708
     29          1           0        4.964906    1.467912   -0.075590
     30          1           0        3.059973   -3.603048   -0.059266
     31          1           0        5.766532   -3.594537   -0.254109
     32          1           0        6.513920   -0.975648   -0.238356
     33          1           0        0.343224    3.492322   -0.069290
     34          1           0        3.946943    3.904473    0.768034
     35          1           0        3.906009    3.871444   -0.991990
     36          1           0        2.685042    4.793586   -0.100217
     37          1           0       -7.385637   -0.968309   -0.031368
 ---------------------------------------------------------------------
                    Distance matrix (angstroms):
                    1          2          3          4          5
     1  S    0.000000
     2  C    1.767214   0.000000
     3  C    2.610760   1.397945   0.000000
     4  C    2.611808   2.338874   1.392527   0.000000
     5  C    1.769912   2.533295   2.350597   1.409278   0.000000
     6  C    2.815213   3.926849   3.702953   2.514719   1.412691
     7  C    3.239054   4.748136   4.839452   3.801412   2.494240
     8  C    4.645792   6.146550   6.144636   4.992729   3.798750
     9  N    5.468920   7.114049   7.297124   6.239994   4.954077
    10  C    6.761962   8.347005   8.395324   7.232347   6.047973
    11  C    7.890340   9.541422   9.684396   8.563872   7.334138
    12  C    7.967431   9.698163  10.037919   9.048930   7.722707
    13  N    6.927315   8.686529   9.171132   8.311259   6.930496
    14  C    7.645737   9.409478  10.046377   9.309868   7.905926
    15  C    8.985194  10.751846  11.336013  10.533089   9.140353
    16  C    9.166573  10.919486  11.338224  10.395269   9.047496
    17  B    5.433556   7.182092   7.644529   6.799164   5.414101
    18  F    5.289658   6.978263   7.488432   6.729747   5.386177
    19  F    4.736537   6.497235   7.124879   6.447675   5.043392
    20  C    6.891188   8.299479   8.107697   6.824722   5.832894
    21  C    5.709574   7.018716   6.756248   5.457073   4.516903
    22  C    8.279022   9.598559   9.276001   7.937327   7.086290
    23  C    2.792084   1.421166   2.528559   3.708962   3.928025
    24  O    3.122161   2.377132   3.675997   4.710134   4.628474
    25  H    3.654874   2.176018   1.085180   2.194522   3.378294
    26  H    3.654917   3.366213   2.195148   1.084373   2.182518
    27  H    3.766901   4.599454   4.059433   2.699040   2.111874
    28  H    2.833138   4.536940   4.941504   4.155509   2.748621
    29  H    8.864133  10.477772  10.536594   9.358097   8.190383
    30  H    7.294996   9.033277   9.800423   9.199623   7.792762
    31  H    9.835578  11.596827  12.249668  11.500727  10.099305
    32  H   10.149799  11.891478  12.249518  11.251889   9.932556
    33  H    5.774090   6.862031   6.390909   5.025980   4.331647
    34  H    8.906424  10.252793   9.952965   8.622200   7.755374
    35  H    8.859425  10.216015   9.934933   8.614914   7.734399
    36  H    8.368527   9.534610   9.057483   7.681678   7.002514
    37  H    3.764965   2.126842   2.723896   4.082044   4.622740
                    6          7          8          9         10
     6  C    0.000000
     7  C    1.384237   0.000000
     8  C    2.478184   1.410432   0.000000
     9  N    3.746235   2.460140   1.385328   0.000000
    10  C    4.721711   3.604597   2.251070   1.392009   0.000000
    11  C    6.049240   4.851324   3.572097   2.427999   1.386628
    12  C    6.575804   5.248333   4.201456   2.839334   2.433912
    13  N    5.946251   4.565772   3.834068   2.485951   2.812650
    14  C    7.058027   5.678094   5.115213   3.810488   4.159008
    15  C    8.194877   6.812064   6.054831   4.680973   4.640843
    16  C    7.943792   6.596769   5.598570   4.227446   3.791828
    17  B    4.484649   3.107328   2.631070   1.548409   2.593179
    18  F    4.605887   3.369756   3.170261   2.433993   3.434446
    19  F    4.374771   3.078539   3.106868   2.439019   3.637717
    20  C    4.424967   3.659628   2.284286   2.298391   1.439730
    21  C    3.104866   2.565063   1.431862   2.275704   2.259145
    22  C    5.677271   5.080103   3.747724   3.741947   2.608392
    23  C    5.296539   5.991801   7.402004   8.260375   9.549706
    24  O    5.888027   6.334992   7.727678   8.408845   9.757560
    25  H    4.670286   5.871848   7.139786   8.331196   9.389040
    26  H    2.816919   4.198527   5.184431   6.521060   7.349513
    27  H    1.088038   2.137533   2.730397   4.109644   4.813885
    28  H    2.132275   1.086515   2.127231   2.658153   3.999333
    29  H    6.854105   5.743649   4.392084   3.403168   2.143258
    30  H    7.116930   5.774236   5.468882   4.293854   4.911524
    31  H    9.205821   7.821680   7.116339   5.749035   5.715499
    32  H    8.766635   7.453090   6.350581   5.021737   4.337883
    33  H    2.985504   2.946315   2.235389   3.315009   3.312269
    34  H    6.349900   5.699724   4.348713   4.169507   2.942636
    35  H    6.339327   5.674570   4.335271   4.162184   2.946159
    36  H    5.630672   5.295413   4.106640   4.429741   3.494255
    37  H    6.031093   6.870517   8.271864   9.210114  10.463563
                   11         12         13         14         15
    11  C    0.000000
    12  C    1.417072   0.000000
    13  N    2.429805   1.391059   0.000000
    14  C    3.569908   2.232162   1.367510   0.000000
    15  C    3.664397   2.265153   2.255154   1.392143   0.000000
    16  C    2.578418   1.405866   2.265652   2.253660   1.410177
    17  B    2.990158   2.606813   1.543366   2.600639   3.752078
    18  F    3.846584   3.455184   2.428275   3.160274   4.327864
    19  F    4.108003   3.628001   2.419097   3.030335   4.322059
    20  C    2.558267   3.817306   4.239411   5.593317   6.057225
    21  C    3.617887   4.649735   4.687691   6.043265   6.764058
    22  C    3.193736   4.604186   5.350528   6.644532   6.855963
    23  C   10.680246  10.707770   9.599171  10.176458  11.550537
    24  O   10.782275  10.644922   9.442230   9.859729  11.247496
    25  H   10.698921  11.094165  10.247764  11.130991  12.418696
    26  H    8.721017   9.360210   8.761614   9.853963  11.010051
    27  H    6.194458   6.929546   6.495295   7.703715   8.741680
    28  H    5.065348   5.164954   4.232373   5.159347   6.408748
    29  H    1.083848   2.168596   3.407894   4.400488   4.201630
    30  H    4.521014   3.256039   2.134430   1.081370   2.241563
    31  H    4.691105   3.317006   3.295393   2.206760   1.081988
    32  H    2.983941   2.215167   3.307655   3.306461   2.240600
    33  H    4.640579   5.722820   5.758744   7.108500   7.845282
    34  H    3.222514   4.605723   5.483699   6.718746   6.803490
    35  H    3.226385   4.592859   5.475891   6.691738   6.760670
    36  H    4.250070   5.647839   6.297291   7.622214   7.907983
    37  H   11.637213  11.727256  10.649713  11.260746  12.630677
                   16         17         18         19         20
    16  C    0.000000
    17  B    3.758922   0.000000
    18  F    4.471700   1.411623   0.000000
    19  F    4.608430   1.409262   2.280267   0.000000
    20  C    5.115691   3.786158   4.473381   4.681045   0.000000
    21  C    6.033193   3.783841   4.334648   4.423641   1.376904
    22  C    5.703957   5.159877   5.828555   6.102438   1.496735
    23  C   11.856821   8.138942   7.871372   7.331983   9.607920
    24  O   11.697348   8.060142   7.762464   7.144031   9.993675
    25  H   12.404918   8.720160   8.544936   8.208022   9.018961
    26  H   10.741227   7.286558   7.262168   7.077578   6.735189
    27  H    8.328557   5.122912   5.288713   5.195771   4.191779
    28  H    6.417553   2.720060   2.910071   2.342559   4.389869
    29  H    2.895506   4.072483   4.865139   5.177412   2.850285
    30  H    3.314140   2.858687   3.192547   2.893106   6.310938
    31  H    2.236650   4.744094   5.225581   5.184681   7.124697
    32  H    1.082127   4.752052   5.453131   5.637539   5.514867
    33  H    7.098657   4.780926   5.236843   5.302263   2.197209
    34  H    5.584641   5.444102   5.942655   6.557223   2.155591
    35  H    5.546717   5.498717   6.360051   6.346271   2.155680
    36  H    6.784405   5.929040   6.530028   6.784389   2.144465
    37  H   12.902962   9.171918   8.894268   8.396348  10.422965
                   21         22         23         24         25
    21  C    0.000000
    22  C    2.583959   0.000000
    23  C    8.360765  10.944096   0.000000
    24  O    8.831036  11.396411   1.248244   0.000000
    25  H    7.651362  10.119148   2.844250   4.087871   0.000000
    26  H    5.361473   7.689384   4.680447   5.742946   2.614357
    27  H    2.815721   5.242328   6.013682   6.738708   4.878724
    28  H    3.484435   5.867972   5.617385   5.758761   6.019797
    29  H    4.129024   2.939909  11.656044  11.803855  11.524180
    30  H    6.569149   7.478495   9.673071   9.243782  10.881450
    31  H    7.844913   7.873680  12.320858  11.936373  13.334529
    32  H    6.590549   5.833044  12.866514  12.740243  13.305580
    33  H    1.082198   2.954747   8.256165   8.867636   7.189530
    34  H    3.304680   1.096413  11.586053  12.011133  10.800350
    35  H    3.293154   1.096507  11.540138  11.951954  10.788826
    36  H    2.735044   1.093079  10.920926  11.484296   9.819761
    37  H    9.131955  11.706792   1.107040   2.043828   2.591768
                   26         27         28         29         30
    26  H    0.000000
    27  H    2.556984   0.000000
    28  H    4.774837   3.092543   0.000000
    29  H    9.421654   6.867303   6.059523   0.000000
    30  H    9.845783   7.881714   5.076887   5.416980   0.000000
    31  H   12.015555   9.787074   7.353934   5.128632   2.713577
    32  H   11.532021   9.060802   7.365141   2.897744   4.343392
    33  H    4.735941   2.336290   3.996621   5.045614   7.597704
    34  H    8.380223   5.939416   6.435520   2.772144   7.604868
    35  H    8.391552   5.954614   6.388768   2.781729   7.579827
    36  H    7.292912   5.005557   6.209237   4.032182   8.405100
    37  H    4.905973   6.620287   6.595325  12.588608  10.772808
                   31         32         33         34         35
    31  H    0.000000
    32  H    2.723493   0.000000
    33  H    8.925805   7.620291   0.000000
    34  H    7.784011   5.605156   3.722603   0.000000
    35  H    7.729611   5.555490   3.699803   1.760810   0.000000
    36  H    8.937554   6.925565   2.679245   1.771095   1.770979
    37  H   13.413659  13.901100   8.923786  12.361651  12.322633
                   36         37
    36  H    0.000000
    37  H   11.602704   0.000000
 Stoichiometry    C17H13BF2N2OS(1-,2)
 Framework group  C1[X(C17H13BF2N2OS)]
 Deg. of freedom   105
 Full point group                 C1      NOp   1
 Largest Abelian subgroup         C1      NOp   1
 Largest concise Abelian subgroup C1      NOp   1
                         Standard orientation:                         
 ---------------------------------------------------------------------
 Center     Atomic      Atomic             Coordinates (Angstroms)
 Number     Number       Type             X           Y           Z
 ---------------------------------------------------------------------
      1         16           0       -3.630916   -0.696473   -0.087387
      2          6           0       -5.358003   -0.326316   -0.030820
      3          6           0       -5.562665    1.053579    0.060030
      4          6           0       -4.385995    1.797864    0.084892
      5          6           0       -3.212725    1.020240    0.015580
      6          6           0       -1.888251    1.511427    0.029743
      7          6           0       -0.733501    0.750140   -0.025994
      8          6           0        0.577666    1.269850   -0.018123
      9          7           0        1.710963    0.473136   -0.013701
     10          6           0        2.828450    1.302941   -0.032035
     11          6           0        4.117572    0.792517   -0.051242
     12          6           0        4.336001   -0.607483   -0.070755
     13          7           0        3.251884   -1.477627   -0.019908
     14          6           0        3.732112   -2.756353   -0.085662
     15          6           0        5.120757   -2.729514   -0.180569
     16          6           0        5.510194   -1.374218   -0.169987
     17          5           0        1.782904   -1.058699    0.200488
     18          9           0        1.364352   -1.396599    1.505600
     19          9           0        0.947902   -1.736184   -0.710448
     20          6           0        2.381201    2.671278   -0.053097
     21          6           0        1.004785    2.636313   -0.042141
     22          6           0        3.273310    3.872311   -0.096435
     23          6           0       -6.346226   -1.346631   -0.076481
     24          8           0       -6.125622   -2.572396   -0.159824
     25          1           0       -6.557828    1.483842    0.106296
     26          1           0       -4.347605    2.879392    0.153365
     27          1           0       -1.807183    2.594354    0.097004
     28          1           0       -0.821487   -0.330750   -0.092708
     29          1           0        4.964906    1.467912   -0.075590
     30          1           0        3.059973   -3.603048   -0.059266
     31          1           0        5.766532   -3.594537   -0.254109
     32          1           0        6.513920   -0.975648   -0.238356
     33          1           0        0.343224    3.492322   -0.069290
     34          1           0        3.946943    3.904473    0.768034
     35          1           0        3.906009    3.871444   -0.991990
     36          1           0        2.685042    4.793586   -0.100217
     37          1           0       -7.385637   -0.968309   -0.031368
 ---------------------------------------------------------------------
 Rotational constants (GHZ):           0.4368842           0.1050177           0.0863100
 Leave Link  202 at Sat Nov  8 10:30:10 2025, MaxMem= 30870077440 cpu:               0.3 elap:               0.0
 (Enter /public/software/gauss/g16/l301.exe)
 Standard basis: def2TZVPP (5D, 7F)
 Ernie: Thresh=  0.10000D-02 Tol=  0.10000D-05 Strict=F.
 There are  1071 symmetry adapted cartesian basis functions of A   symmetry.
 There are   937 symmetry adapted basis functions of A   symmetry.
   937 basis functions,  1463 primitive gaussians,  1071 cartesian basis functions
    89 alpha electrons       88 beta electrons
       nuclear repulsion energy      2013.7328535433 Hartrees.
 IExCor= 4336 DFT=T Ex+Corr=M062X ExCW=0 ScaHFX=  0.540000
 ScaDFX=  1.000000  1.000000  1.000000  1.000000 ScalE2=  1.000000  1.000000
 IRadAn=      5 IRanWt=     -1 IRanGd=            0 ICorTp=0 IEmpDi=131
 NAtoms=   37 NActive=   37 NUniq=   37 SFac= 1.00D+00 NAtFMM=   60 NAOKFM=F Big=F
 Integral buffers will be    131072 words long.
 Raffenetti 2 integral format.
 Two-electron integral symmetry is turned on.
 R6Disp:  Grimme-D3 Dispersion energy=       -0.0020472237 Hartrees.
 Nuclear repulsion after empirical dispersion term =     2013.7308063196 Hartrees.
 ------------------------------------------------------------------------------
 Polarizable Continuum Model (PCM)
 =================================
 Model                : PCM.
 Atomic radii         : UFF (Universal Force Field).
 Polarization charges : Total charges.
 Charge compensation  : None.
 Solution method      : On-the-fly selection.
 Cavity type          : Scaled VdW (van der Waals Surface) (Alpha=1.100).
 Cavity algorithm     : GePol (No added spheres)
                        Default sphere list used, NSphG=   37.
                        Lebedev-Laikov grids with approx.  5.0 points / Ang**2.
                        Smoothing algorithm: York/Karplus (Gamma=1.0000).
                        Polarization charges: spherical gaussians, with
                                              point-specific exponents (IZeta= 3).
                        Self-potential: point-specific (ISelfS= 7).
                        Self-field    : sphere-specific E.n sum rule (ISelfD= 2).
 Solvent              : Water, Eps=  78.355300 Eps(inf)=   1.777849
 ------------------------------------------------------------------------------
 GePol: Number of generator spheres                  =      37
 GePol: Total number of spheres                      =      37
 GePol: Number of exposed spheres                    =      37 (100.00%)
 GePol: Number of points                             =    3150
 GePol: Average weight of points                     =       0.13
 GePol: Minimum weight of points                     =   0.11D-10
 GePol: Maximum weight of points                     =    0.20577
 GePol: Number of points with low weight             =     214
 GePol: Fraction of low-weight points (<1% of avg)   =       6.79%
 GePol: Cavity surface area                          =    398.115 Ang**2
 GePol: Cavity volume                                =    433.213 Ang**3
 Leave Link  301 at Sat Nov  8 10:30:10 2025, MaxMem= 30870077440 cpu:               4.8 elap:               0.1
 (Enter /public/software/gauss/g16/l302.exe)
 NPDir=0 NMtPBC=     1 NCelOv=     1 NCel=       1 NClECP=     1 NCelD=      1
         NCelK=      1 NCelE2=     1 NClLst=     1 CellRange=     0.0.
 One-electron integrals computed using PRISM.
 One-electron integral symmetry used in STVInt
   1 Symmetry operations used in ECPInt.
 ECPInt:  NShTT=   59685 NPrTT=  175516 LenC2=   46341 LenP2D=   96559.
 LDataN:  DoStor=T MaxTD1= 6 Len=  172
 NBasis=   937 RedAO= T EigKep=  8.16D-06  NBF=   937
 NBsUse=   937 1.00D-06 EigRej= -1.00D+00 NBFU=   937
 Precomputing XC quadrature grid using
 IXCGrd= 4 IRadAn=           5 IRanWt=          -1 IRanGd=           0 AccXCQ= 0.00D+00.
 Generated NRdTot=       0 NPtTot=           0 NUsed=           0 NTot=          32
 NSgBfM=  1038  1038  1038  1038  1038 MxSgAt=    37 MxSgA2=    37.
 Leave Link  302 at Sat Nov  8 10:30:13 2025, MaxMem= 30870077440 cpu:             136.4 elap:               2.2
 (Enter /public/software/gauss/g16/l303.exe)
 DipDrv:  MaxL=1.
 Leave Link  303 at Sat Nov  8 10:30:13 2025, MaxMem= 30870077440 cpu:               9.1 elap:               0.2
 (Enter /public/software/gauss/g16/l401.exe)
 ExpMin= 6.06D-02 ExpMax= 6.07D+04 ExpMxC= 2.07D+03 IAcc=3 IRadAn=         5 AccDes= 0.00D+00
 Harris functional with IExCor= 1009 and IRadAn=       5 diagonalized for initial guess.
 HarFok:  IExCor= 1009 AccDes= 0.00D+00 IRadAn=         5 IDoV= 1 UseB2=F ITyADJ=14
 ICtDFT=  3500011 ScaDFX=  1.000000  1.000000  1.000000  1.000000
 FoFCou: FMM=F IPFlag=           0 FMFlag=      100000 FMFlg1=           0
         NFxFlg=           0 DoJE=T BraDBF=F KetDBF=T FulRan=T
         wScrn=  0.000000 ICntrl=       500 IOpCl=  0 I1Cent=   200000004 NGrid=           0
         NMat0=    1 NMatS0=      1 NMatT0=    0 NMatD0=    1 NMtDS0=    0 NMtDT0=    0
 Petite list used in FoFCou.
 Harris En= -1462.73022608830    
 JPrj=0 DoOrth=F DoCkMO=F.
 Initial guess <Sx>= 0.0000 <Sy>= 0.0000 <Sz>= 0.5000 <S**2>= 0.7500 S= 0.5000
 Leave Link  401 at Sat Nov  8 10:30:16 2025, MaxMem= 30870077440 cpu:             223.5 elap:               3.5
 (Enter /public/software/gauss/g16/l502.exe)
 Integral symmetry usage will be decided dynamically.
 UHF open shell SCF:
 Using DIIS extrapolation, IDIIS=  1040.
 NGot= 30870077440 LenX= 30867705787 LenY= 30866557675
 Requested convergence on RMS density matrix=1.00D-08 within 128 cycles.
 Requested convergence on MAX density matrix=1.00D-06.
 Requested convergence on             energy=1.00D-06.
 No special actions if energy rises.
 Fock matrices will be formed incrementally for  20 cycles.

 Cycle   1  Pass 1  IDiag  1:
 FoFJK:  IHMeth= 1 ICntrl=       0 DoSepK=F KAlg= 0 I1Cent=           0 FoldK=F
 IRaf= 700000000 NMat=       1 IRICut=       1 DoRegI=T DoRafI=F ISym2E= 0 IDoP0=0 IntGTp=1.
 FoFCou: FMM=F IPFlag=           0 FMFlag=      100000 FMFlg1=           0
         NFxFlg=           0 DoJE=F BraDBF=F KetDBF=F FulRan=T
         wScrn=  0.000000 ICntrl=         0 IOpCl=  1 I1Cent=           0 NGrid=           0
         NMat0=    1 NMatS0=      1 NMatT0=    0 NMatD0=    1 NMtDS0=    0 NMtDT0=    0
 Symmetry not used in FoFCou.
 Inv3:  Mode=1 IEnd=    29767500.
 Iteration    1 A*A^-1 deviation from unit magnitude is 9.10D-15 for   1704.
 Iteration    1 A*A^-1 deviation from orthogonality  is 3.46D-15 for   2687   1791.
 Iteration    1 A^-1*A deviation from unit magnitude is 7.55D-15 for   1704.
 Iteration    1 A^-1*A deviation from orthogonality  is 3.25D-15 for   2153    127.
 E= -1462.74386567946    
 DIIS: error= 2.06D-02 at cycle   1 NSaved=   1.
 NSaved= 1 IEnMin= 1 EnMin= -1462.74386567946     IErMin= 1 ErrMin= 2.06D-02
 ErrMax= 2.06D-02  0.00D+00 EMaxC= 1.00D-01 BMatC= 3.29D+00 BMatP= 3.29D+00
 IDIUse=3 WtCom= 7.94D-01 WtEn= 2.06D-01
 Coeff-Com:  0.100D+01
 Coeff-En:   0.100D+01
 Coeff:      0.100D+01
 Gap=     0.106 Goal=   None    Shift=    0.000
 Gap=     0.163 Goal=   None    Shift=    0.000
 GapD=    0.106 DampG=1.000 DampE=0.500 DampFc=0.5000 IDamp=-1.
 Damping current iteration by 5.00D-01
 RMSDP=2.25D-03 MaxDP=3.45D-01              OVMax= 2.72D-01

 Cycle   2  Pass 1  IDiag  1:
 RMSU=  1.12D-03    CP:  9.87D-01
 E= -1463.07549353124     Delta-E=       -0.331627851781 Rises=F Damp=T
 DIIS: error= 5.34D-03 at cycle   2 NSaved=   2.
 NSaved= 2 IEnMin= 2 EnMin= -1463.07549353124     IErMin= 2 ErrMin= 5.34D-03
 ErrMax= 5.34D-03  0.00D+00 EMaxC= 1.00D-01 BMatC= 2.69D-01 BMatP= 3.29D+00
 IDIUse=3 WtCom= 9.47D-01 WtEn= 5.34D-02
 Coeff-Com: -0.863D-01 0.109D+01
 Coeff-En:   0.000D+00 0.100D+01
 Coeff:     -0.817D-01 0.108D+01
 Gap=     0.113 Goal=   None    Shift=    0.000
 Gap=     0.136 Goal=   None    Shift=    0.000
 RMSDP=7.69D-04 MaxDP=9.45D-02 DE=-3.32D-01 OVMax= 1.86D-01

 Cycle   3  Pass 1  IDiag  1:
 RMSU=  7.64D-04    CP:  9.74D-01  9.62D-01
 E= -1463.38902599750     Delta-E=       -0.313532466263 Rises=F Damp=F
 DIIS: error= 4.16D-03 at cycle   3 NSaved=   3.
 NSaved= 3 IEnMin= 3 EnMin= -1463.38902599750     IErMin= 3 ErrMin= 4.16D-03
 ErrMax= 4.16D-03  0.00D+00 EMaxC= 1.00D-01 BMatC= 9.39D-02 BMatP= 2.69D-01
 IDIUse=3 WtCom= 9.58D-01 WtEn= 4.16D-02
 Coeff-Com: -0.930D-01 0.402D+00 0.692D+00
 Coeff-En:   0.000D+00 0.000D+00 0.100D+01
 Coeff:     -0.892D-01 0.385D+00 0.704D+00
 Gap=     0.116 Goal=   None    Shift=    0.000
 Gap=     0.141 Goal=   None    Shift=    0.000
 RMSDP=2.37D-04 MaxDP=3.54D-02 DE=-3.14D-01 OVMax= 4.97D-02

 Cycle   4  Pass 1  IDiag  1:
 RMSU=  1.96D-04    CP:  9.76D-01  1.06D+00  9.09D-01
 E= -1463.40414582802     Delta-E=       -0.015119830520 Rises=F Damp=F
 DIIS: error= 2.76D-03 at cycle   4 NSaved=   4.
 NSaved= 4 IEnMin= 4 EnMin= -1463.40414582802     IErMin= 4 ErrMin= 2.76D-03
 ErrMax= 2.76D-03  0.00D+00 EMaxC= 1.00D-01 BMatC= 2.58D-02 BMatP= 9.39D-02
 IDIUse=3 WtCom= 9.72D-01 WtEn= 2.76D-02
 Coeff-Com: -0.329D-01 0.844D-01 0.381D+00 0.567D+00
 Coeff-En:   0.000D+00 0.000D+00 0.175D+00 0.825D+00
 Coeff:     -0.320D-01 0.821D-01 0.375D+00 0.574D+00
 Gap=     0.117 Goal=   None    Shift=    0.000
 Gap=     0.143 Goal=   None    Shift=    0.000
 RMSDP=1.06D-04 MaxDP=1.65D-02 DE=-1.51D-02 OVMax= 2.13D-02

 Cycle   5  Pass 1  IDiag  1:
 RMSU=  7.19D-05    CP:  9.74D-01  1.03D+00  9.64D-01  7.21D-01
 E= -1463.40960781562     Delta-E=       -0.005461987600 Rises=F Damp=F
 DIIS: error= 5.74D-04 at cycle   5 NSaved=   5.
 NSaved= 5 IEnMin= 5 EnMin= -1463.40960781562     IErMin= 5 ErrMin= 5.74D-04
 ErrMax= 5.74D-04  0.00D+00 EMaxC= 1.00D-01 BMatC= 1.22D-03 BMatP= 2.58D-02
 IDIUse=3 WtCom= 9.94D-01 WtEn= 5.74D-03
 Coeff-Com: -0.776D-02 0.123D-01 0.128D+00 0.260D+00 0.607D+00
 Coeff-En:   0.000D+00 0.000D+00 0.000D+00 0.000D+00 0.100D+01
 Coeff:     -0.772D-02 0.122D-01 0.127D+00 0.258D+00 0.610D+00
 Gap=     0.118 Goal=   None    Shift=    0.000
 Gap=     0.144 Goal=   None    Shift=    0.000
 RMSDP=3.40D-05 MaxDP=4.35D-03 DE=-5.46D-03 OVMax= 1.08D-02

 Cycle   6  Pass 1  IDiag  1:
 RMSU=  3.28D-05    CP:  9.75D-01  1.04D+00  9.70D-01  7.52D-01  1.02D+00
 E= -1463.41003973312     Delta-E=       -0.000431917501 Rises=F Damp=F
 DIIS: error= 4.73D-04 at cycle   6 NSaved=   6.
 NSaved= 6 IEnMin= 6 EnMin= -1463.41003973312     IErMin= 6 ErrMin= 4.73D-04
 ErrMax= 4.73D-04  0.00D+00 EMaxC= 1.00D-01 BMatC= 1.69D-04 BMatP= 1.22D-03
 IDIUse=3 WtCom= 9.95D-01 WtEn= 4.73D-03
 Coeff-Com:  0.378D-02-0.116D-01-0.208D-01-0.116D-01 0.181D+00 0.859D+00
 Coeff-En:   0.000D+00 0.000D+00 0.000D+00 0.000D+00 0.000D+00 0.100D+01
 Coeff:      0.376D-02-0.116D-01-0.207D-01-0.115D-01 0.180D+00 0.860D+00
 Gap=     0.120 Goal=   None    Shift=    0.000
 Gap=     0.146 Goal=   None    Shift=    0.000
 RMSDP=2.44D-05 MaxDP=2.66D-03 DE=-4.32D-04 OVMax= 9.75D-03

 Cycle   7  Pass 1  IDiag  1:
 RMSU=  1.26D-05    CP:  9.75D-01  1.03D+00  9.79D-01  7.72D-01  1.20D+00
                    CP:  1.41D+00
 E= -1463.41022237336     Delta-E=       -0.000182640238 Rises=F Damp=F
 DIIS: error= 2.19D-04 at cycle   7 NSaved=   7.
 NSaved= 7 IEnMin= 7 EnMin= -1463.41022237336     IErMin= 7 ErrMin= 2.19D-04
 ErrMax= 2.19D-04  0.00D+00 EMaxC= 1.00D-01 BMatC= 5.79D-05 BMatP= 1.69D-04
 IDIUse=3 WtCom= 9.98D-01 WtEn= 2.19D-03
 Coeff-Com:  0.368D-02-0.798D-02-0.422D-01-0.761D-01-0.123D+00 0.314D+00
 Coeff-Com:  0.932D+00
 Coeff-En:   0.000D+00 0.000D+00 0.000D+00 0.000D+00 0.000D+00 0.000D+00
 Coeff-En:   0.100D+01
 Coeff:      0.368D-02-0.796D-02-0.422D-01-0.759D-01-0.122D+00 0.313D+00
 Coeff:      0.932D+00
 Gap=     0.122 Goal=   None    Shift=    0.000
 Gap=     0.147 Goal=   None    Shift=    0.000
 RMSDP=1.80D-05 MaxDP=2.04D-03 DE=-1.83D-04 OVMax= 1.01D-02

 Cycle   8  Pass 1  IDiag  1:
 RMSU=  7.38D-06    CP:  9.75D-01  1.03D+00  9.83D-01  7.90D-01  1.32D+00
                    CP:  1.78D+00  1.43D+00
 E= -1463.41031047850     Delta-E=       -0.000088105143 Rises=F Damp=F
 DIIS: error= 1.06D-04 at cycle   8 NSaved=   8.
 NSaved= 8 IEnMin= 8 EnMin= -1463.41031047850     IErMin= 8 ErrMin= 1.06D-04
 ErrMax= 1.06D-04  0.00D+00 EMaxC= 1.00D-01 BMatC= 1.64D-05 BMatP= 5.79D-05
 IDIUse=3 WtCom= 9.99D-01 WtEn= 1.06D-03
 Coeff-Com:  0.444D-03-0.467D-04-0.105D-01-0.252D-01-0.880D-01-0.947D-01
 Coeff-Com:  0.341D+00 0.877D+00
 Coeff-En:   0.000D+00 0.000D+00 0.000D+00 0.000D+00 0.000D+00 0.000D+00
 Coeff-En:   0.000D+00 0.100D+01
 Coeff:      0.444D-03-0.466D-04-0.104D-01-0.252D-01-0.879D-01-0.946D-01
 Coeff:      0.341D+00 0.877D+00
 Gap=     0.122 Goal=   None    Shift=    0.000
 Gap=     0.148 Goal=   None    Shift=    0.000
 RMSDP=9.57D-06 MaxDP=7.68D-04 DE=-8.81D-05 OVMax= 5.37D-03

 Cycle   9  Pass 1  IDiag  1:
 RMSU=  3.44D-06    CP:  9.75D-01  1.03D+00  9.85D-01  7.97D-01  1.37D+00
                    CP:  1.94D+00  1.81D+00  1.49D+00
 E= -1463.41033776722     Delta-E=       -0.000027288720 Rises=F Damp=F
 DIIS: error= 8.03D-05 at cycle   9 NSaved=   9.
 NSaved= 9 IEnMin= 9 EnMin= -1463.41033776722     IErMin= 9 ErrMin= 8.03D-05
 ErrMax= 8.03D-05  0.00D+00 EMaxC= 1.00D-01 BMatC= 5.81D-06 BMatP= 1.64D-05
 IDIUse=1 WtCom= 1.00D+00 WtEn= 0.00D+00
 Coeff-Com: -0.906D-03 0.230D-02 0.809D-02 0.124D-01 0.753D-03-0.128D+00
 Coeff-Com: -0.144D+00 0.360D+00 0.890D+00
 Coeff:     -0.906D-03 0.230D-02 0.809D-02 0.124D-01 0.753D-03-0.128D+00
 Coeff:     -0.144D+00 0.360D+00 0.890D+00
 Gap=     0.123 Goal=   None    Shift=    0.000
 Gap=     0.148 Goal=   None    Shift=    0.000
 RMSDP=6.09D-06 MaxDP=5.09D-04 DE=-2.73D-05 OVMax= 3.36D-03

 Cycle  10  Pass 1  IDiag  1:
 RMSU=  2.09D-06    CP:  9.75D-01  1.03D+00  9.84D-01  8.00D-01  1.38D+00
                    CP:  2.03D+00  2.02D+00  1.95D+00  1.58D+00
 E= -1463.41034813986     Delta-E=       -0.000010372640 Rises=F Damp=F
 DIIS: error= 5.77D-05 at cycle  10 NSaved=  10.
 NSaved=10 IEnMin=10 EnMin= -1463.41034813986     IErMin=10 ErrMin= 5.77D-05
 ErrMax= 5.77D-05  0.00D+00 EMaxC= 1.00D-01 BMatC= 1.75D-06 BMatP= 5.81D-06
 IDIUse=1 WtCom= 1.00D+00 WtEn= 0.00D+00
 Coeff-Com: -0.504D-03 0.969D-03 0.676D-02 0.137D-01 0.275D-01-0.166D-01
 Coeff-Com: -0.167D+00-0.134D+00 0.301D+00 0.967D+00
 Coeff:     -0.504D-03 0.969D-03 0.676D-02 0.137D-01 0.275D-01-0.166D-01
 Coeff:     -0.167D+00-0.134D+00 0.301D+00 0.967D+00
 Gap=     0.123 Goal=   None    Shift=    0.000
 Gap=     0.148 Goal=   None    Shift=    0.000
 RMSDP=3.94D-06 MaxDP=4.52D-04 DE=-1.04D-05 OVMax= 2.67D-03

 Cycle  11  Pass 1  IDiag  1:
 RMSU=  1.23D-06    CP:  9.75D-01  1.03D+00  9.84D-01  8.02D-01  1.38D+00
                    CP:  2.06D+00  2.12D+00  2.25D+00  2.13D+00  1.62D+00
 E= -1463.41035229349     Delta-E=       -0.000004153629 Rises=F Damp=F
 DIIS: error= 3.29D-05 at cycle  11 NSaved=  11.
 NSaved=11 IEnMin=11 EnMin= -1463.41035229349     IErMin=11 ErrMin= 3.29D-05
 ErrMax= 3.29D-05  0.00D+00 EMaxC= 1.00D-01 BMatC= 5.90D-07 BMatP= 1.75D-06
 IDIUse=1 WtCom= 1.00D+00 WtEn= 0.00D+00
 Coeff-Com:  0.175D-03-0.523D-03-0.902D-03-0.368D-03 0.650D-02 0.369D-01
 Coeff-Com:  0.692D-04-0.129D+00-0.218D+00 0.275D+00 0.103D+01
 Coeff:      0.175D-03-0.523D-03-0.902D-03-0.368D-03 0.650D-02 0.369D-01
 Coeff:      0.692D-04-0.129D+00-0.218D+00 0.275D+00 0.103D+01
 Gap=     0.123 Goal=   None    Shift=    0.000
 Gap=     0.148 Goal=   None    Shift=    0.000
 RMSDP=2.64D-06 MaxDP=2.73D-04 DE=-4.15D-06 OVMax= 1.98D-03

 Cycle  12  Pass 1  IDiag  1:
 RMSU=  7.33D-07    CP:  9.75D-01  1.03D+00  9.84D-01  8.04D-01  1.38D+00
                    CP:  2.08D+00  2.17D+00  2.41D+00  2.51D+00  2.23D+00
                    CP:  1.67D+00
 E= -1463.41035386461     Delta-E=       -0.000001571120 Rises=F Damp=F
 DIIS: error= 2.24D-05 at cycle  12 NSaved=  12.
 NSaved=12 IEnMin=12 EnMin= -1463.41035386461     IErMin=12 ErrMin= 2.24D-05
 ErrMax= 2.24D-05  0.00D+00 EMaxC= 1.00D-01 BMatC= 2.32D-07 BMatP= 5.90D-07
 IDIUse=1 WtCom= 1.00D+00 WtEn= 0.00D+00
 Coeff-Com:  0.247D-03-0.531D-03-0.280D-02-0.529D-02-0.793D-02 0.185D-01
 Coeff-Com:  0.613D-01 0.137D-01-0.210D+00-0.271D+00 0.396D+00 0.101D+01
 Coeff:      0.247D-03-0.531D-03-0.280D-02-0.529D-02-0.793D-02 0.185D-01
 Coeff:      0.613D-01 0.137D-01-0.210D+00-0.271D+00 0.396D+00 0.101D+01
 Gap=     0.123 Goal=   None    Shift=    0.000
 Gap=     0.148 Goal=   None    Shift=    0.000
 RMSDP=1.86D-06 MaxDP=2.14D-04 DE=-1.57D-06 OVMax= 1.54D-03

 Cycle  13  Pass 1  IDiag  1:
 RMSU=  4.74D-07    CP:  9.75D-01  1.03D+00  9.84D-01  8.05D-01  1.38D+00
                    CP:  2.10D+00  2.19D+00  2.50D+00  2.74D+00  2.66D+00
                    CP:  2.34D+00  1.66D+00
 E= -1463.41035451659     Delta-E=       -0.000000651975 Rises=F Damp=F
 DIIS: error= 6.51D-06 at cycle  13 NSaved=  13.
 NSaved=13 IEnMin=13 EnMin= -1463.41035451659     IErMin=13 ErrMin= 6.51D-06
 ErrMax= 6.51D-06  0.00D+00 EMaxC= 1.00D-01 BMatC= 6.50D-08 BMatP= 2.32D-07
 IDIUse=1 WtCom= 1.00D+00 WtEn= 0.00D+00
 Coeff-Com:  0.141D-04 0.139D-04-0.416D-03-0.125D-02-0.425D-02-0.650D-02
 Coeff-Com:  0.201D-01 0.457D-01 0.271D-03-0.161D+00-0.193D+00 0.272D+00
 Coeff-Com:  0.103D+01
 Coeff:      0.141D-04 0.139D-04-0.416D-03-0.125D-02-0.425D-02-0.650D-02
 Coeff:      0.201D-01 0.457D-01 0.271D-03-0.161D+00-0.193D+00 0.272D+00
 Coeff:      0.103D+01
 Gap=     0.123 Goal=   None    Shift=    0.000
 Gap=     0.148 Goal=   None    Shift=    0.000
 RMSDP=1.12D-06 MaxDP=9.58D-05 DE=-6.52D-07 OVMax= 9.61D-04

 Cycle  14  Pass 1  IDiag  1:
 RMSU=  2.78D-07    CP:  9.75D-01  1.03D+00  9.83D-01  8.05D-01  1.38D+00
                    CP:  2.11D+00  2.21D+00  2.53D+00  2.85D+00  2.89D+00
                    CP:  2.72D+00  2.34D+00  1.59D+00
 E= -1463.41035472192     Delta-E=       -0.000000205337 Rises=F Damp=F
 DIIS: error= 4.72D-06 at cycle  14 NSaved=  14.
 NSaved=14 IEnMin=14 EnMin= -1463.41035472192     IErMin=14 ErrMin= 4.72D-06
 ErrMax= 4.72D-06  0.00D+00 EMaxC= 1.00D-01 BMatC= 2.94D-08 BMatP= 6.50D-08
 IDIUse=1 WtCom= 1.00D+00 WtEn= 0.00D+00
 Coeff-Com: -0.793D-04 0.188D-03 0.859D-03 0.145D-02 0.682D-03-0.988D-02
 Coeff-Com: -0.116D-01 0.153D-01 0.715D-01 0.274D-01-0.223D+00-0.252D+00
 Coeff-Com:  0.481D+00 0.898D+00
 Coeff:     -0.793D-04 0.188D-03 0.859D-03 0.145D-02 0.682D-03-0.988D-02
 Coeff:     -0.116D-01 0.153D-01 0.715D-01 0.274D-01-0.223D+00-0.252D+00
 Coeff:      0.481D+00 0.898D+00
 Gap=     0.123 Goal=   None    Shift=    0.000
 Gap=     0.148 Goal=   None    Shift=    0.000
 RMSDP=6.61D-07 MaxDP=5.74D-05 DE=-2.05D-07 OVMax= 6.12D-04

 Cycle  15  Pass 1  IDiag  1:
 RMSU=  1.51D-07    CP:  9.75D-01  1.03D+00  9.84D-01  8.05D-01  1.38D+00
                    CP:  2.11D+00  2.21D+00  2.55D+00  2.90D+00  2.98D+00
                    CP:  2.95D+00  2.74D+00  2.22D+00  1.55D+00
 E= -1463.41035479883     Delta-E=       -0.000000076904 Rises=F Damp=F
 DIIS: error= 2.18D-06 at cycle  15 NSaved=  15.
 NSaved=15 IEnMin=15 EnMin= -1463.41035479883     IErMin=15 ErrMin= 2.18D-06
 ErrMax= 2.18D-06  0.00D+00 EMaxC= 1.00D-01 BMatC= 8.49D-09 BMatP= 2.94D-08
 IDIUse=1 WtCom= 1.00D+00 WtEn= 0.00D+00
 Coeff-Com: -0.223D-04 0.416D-04 0.378D-03 0.867D-03 0.130D-02-0.125D-02
 Coeff-Com: -0.922D-02-0.935D-02 0.192D-01 0.718D-01-0.226D-03-0.209D+00
 Coeff-Com: -0.198D+00 0.305D+00 0.103D+01
 Coeff:     -0.223D-04 0.416D-04 0.378D-03 0.867D-03 0.130D-02-0.125D-02
 Coeff:     -0.922D-02-0.935D-02 0.192D-01 0.718D-01-0.226D-03-0.209D+00
 Coeff:     -0.198D+00 0.305D+00 0.103D+01
 Gap=     0.123 Goal=   None    Shift=    0.000
 Gap=     0.148 Goal=   None    Shift=    0.000
 RMSDP=4.82D-07 MaxDP=4.33D-05 DE=-7.69D-08 OVMax= 4.31D-04

 Cycle  16  Pass 1  IDiag  1:
 RMSU=  1.53D-07    CP:  9.75D-01  1.03D+00  9.83D-01  8.05D-01  1.38D+00
                    CP:  2.12D+00  2.22D+00  2.55D+00  2.94D+00  3.00D+00
                    CP:  3.00D+00  3.00D+00  2.63D+00  2.23D+00  1.58D+00
 E= -1463.41035482879     Delta-E=       -0.000000029961 Rises=F Damp=F
 DIIS: error= 1.26D-06 at cycle  16 NSaved=  16.
 NSaved=16 IEnMin=16 EnMin= -1463.41035482879     IErMin=16 ErrMin= 1.26D-06
 ErrMax= 1.26D-06  0.00D+00 EMaxC= 1.00D-01 BMatC= 2.59D-09 BMatP= 8.49D-09
 IDIUse=1 WtCom= 1.00D+00 WtEn= 0.00D+00
 Coeff-Com:  0.167D-04-0.421D-04-0.146D-03-0.144D-03 0.256D-03 0.241D-02
 Coeff-Com:  0.135D-02-0.503D-02-0.194D-01 0.737D-02 0.685D-01 0.195D-01
 Coeff-Com: -0.179D+00-0.224D+00 0.274D+00 0.105D+01
 Coeff:      0.167D-04-0.421D-04-0.146D-03-0.144D-03 0.256D-03 0.241D-02
 Coeff:      0.135D-02-0.503D-02-0.194D-01 0.737D-02 0.685D-01 0.195D-01
 Coeff:     -0.179D+00-0.224D+00 0.274D+00 0.105D+01
 Gap=     0.123 Goal=   None    Shift=    0.000
 Gap=     0.148 Goal=   None    Shift=    0.000
 RMSDP=2.71D-07 MaxDP=2.73D-05 DE=-3.00D-08 OVMax= 2.55D-04

 Cycle  17  Pass 1  IDiag  1:
 RMSU=  9.53D-08    CP:  9.75D-01  1.03D+00  9.83D-01  8.05D-01  1.38D+00
                    CP:  2.12D+00  2.22D+00  2.56D+00  2.96D+00  3.00D+00
                    CP:  3.00D+00  3.00D+00  2.85D+00  2.65D+00  2.14D+00
                    CP:  1.90D+00
 E= -1463.41035483795     Delta-E=       -0.000000009160 Rises=F Damp=F
 DIIS: error= 7.25D-07 at cycle  17 NSaved=  17.
 NSaved=17 IEnMin=17 EnMin= -1463.41035483795     IErMin=17 ErrMin= 7.25D-07
 ErrMax= 7.25D-07  0.00D+00 EMaxC= 1.00D-01 BMatC= 7.52D-10 BMatP= 2.59D-09
 IDIUse=1 WtCom= 1.00D+00 WtEn= 0.00D+00
 Coeff-Com:  0.135D-04-0.288D-04-0.200D-03-0.362D-03-0.422D-03 0.114D-02
 Coeff-Com:  0.405D-02 0.244D-02-0.145D-01-0.228D-01 0.249D-01 0.740D-01
 Coeff-Com:  0.146D-01-0.183D+00-0.242D+00 0.320D+00 0.102D+01
 Coeff:      0.135D-04-0.288D-04-0.200D-03-0.362D-03-0.422D-03 0.114D-02
 Coeff:      0.405D-02 0.244D-02-0.145D-01-0.228D-01 0.249D-01 0.740D-01
 Coeff:      0.146D-01-0.183D+00-0.242D+00 0.320D+00 0.102D+01
 Gap=     0.123 Goal=   None    Shift=    0.000
 Gap=     0.148 Goal=   None    Shift=    0.000
 RMSDP=1.49D-07 MaxDP=1.53D-05 DE=-9.16D-09 OVMax= 1.39D-04

 Cycle  18  Pass 1  IDiag  1:
 RMSU=  2.59D-08    CP:  9.75D-01  1.03D+00  9.83D-01  8.05D-01  1.38D+00
                    CP:  2.12D+00  2.22D+00  2.56D+00  2.96D+00  3.00D+00
                    CP:  3.00D+00  3.00D+00  2.96D+00  2.88D+00  2.45D+00
                    CP:  2.43D+00  1.47D+00
 E= -1463.41035484038     Delta-E=       -0.000000002435 Rises=F Damp=F
 DIIS: error= 4.32D-07 at cycle  18 NSaved=  18.
 NSaved=18 IEnMin=18 EnMin= -1463.41035484038     IErMin=18 ErrMin= 4.32D-07
 ErrMax= 4.32D-07  0.00D+00 EMaxC= 1.00D-01 BMatC= 1.75D-10 BMatP= 7.52D-10
 IDIUse=1 WtCom= 1.00D+00 WtEn= 0.00D+00
 Coeff-Com: -0.527D-06 0.220D-05-0.222D-04-0.621D-04-0.202D-03-0.291D-03
 Coeff-Com:  0.927D-03 0.218D-02 0.778D-05-0.813D-02-0.975D-02 0.160D-01
 Coeff-Com:  0.510D-01-0.164D-02-0.152D+00-0.168D+00 0.306D+00 0.963D+00
 Coeff:     -0.527D-06 0.220D-05-0.222D-04-0.621D-04-0.202D-03-0.291D-03
 Coeff:      0.927D-03 0.218D-02 0.778D-05-0.813D-02-0.975D-02 0.160D-01
 Coeff:      0.510D-01-0.164D-02-0.152D+00-0.168D+00 0.306D+00 0.963D+00
 Gap=     0.123 Goal=   None    Shift=    0.000
 Gap=     0.148 Goal=   None    Shift=    0.000
 RMSDP=7.36D-08 MaxDP=6.90D-06 DE=-2.43D-09 OVMax= 6.70D-05

 Cycle  19  Pass 1  IDiag  1:
 RMSU=  1.25D-08    CP:  9.75D-01  1.03D+00  9.83D-01  8.05D-01  1.38D+00
                    CP:  2.12D+00  2.22D+00  2.56D+00  2.97D+00  3.00D+00
                    CP:  3.00D+00  3.00D+00  3.00D+00  2.99D+00  2.58D+00
                    CP:  2.68D+00  1.74D+00  1.50D+00
 E= -1463.41035484080     Delta-E=       -0.000000000415 Rises=F Damp=F
 DIIS: error= 1.55D-07 at cycle  19 NSaved=  19.
 NSaved=19 IEnMin=19 EnMin= -1463.41035484080     IErMin=19 ErrMin= 1.55D-07
 ErrMax= 1.55D-07  0.00D+00 EMaxC= 1.00D-01 BMatC= 6.01D-11 BMatP= 1.75D-10
 IDIUse=1 WtCom= 1.00D+00 WtEn= 0.00D+00
 Coeff-Com: -0.305D-05 0.710D-05 0.314D-04 0.482D-04-0.207D-04-0.373D-03
 Coeff-Com: -0.333D-03 0.587D-03 0.266D-02 0.863D-03-0.101D-01-0.774D-02
 Coeff-Com:  0.221D-01 0.401D-01-0.265D-01-0.147D+00-0.787D-01 0.460D+00
 Coeff-Com:  0.744D+00
 Coeff:     -0.305D-05 0.710D-05 0.314D-04 0.482D-04-0.207D-04-0.373D-03
 Coeff:     -0.333D-03 0.587D-03 0.266D-02 0.863D-03-0.101D-01-0.774D-02
 Coeff:      0.221D-01 0.401D-01-0.265D-01-0.147D+00-0.787D-01 0.460D+00
 Coeff:      0.744D+00
 Gap=     0.123 Goal=   None    Shift=    0.000
 Gap=     0.148 Goal=   None    Shift=    0.000
 RMSDP=2.74D-08 MaxDP=2.38D-06 DE=-4.15D-10 OVMax= 2.40D-05

 Cycle  20  Pass 1  IDiag  1:
 RMSU=  9.55D-09    CP:  9.75D-01  1.03D+00  9.83D-01  8.05D-01  1.38D+00
                    CP:  2.12D+00  2.22D+00  2.56D+00  2.97D+00  3.00D+00
                    CP:  3.00D+00  3.00D+00  3.00D+00  3.00D+00  2.62D+00
                    CP:  2.78D+00  1.83D+00  1.76D+00  1.30D+00
 E= -1463.41035484090     Delta-E=       -0.000000000102 Rises=F Damp=F
 DIIS: error= 9.53D-08 at cycle  20 NSaved=  20.
 NSaved=20 IEnMin=20 EnMin= -1463.41035484090     IErMin=20 ErrMin= 9.53D-08
 ErrMax= 9.53D-08  0.00D+00 EMaxC= 1.00D-01 BMatC= 1.09D-11 BMatP= 6.01D-11
 IDIUse=1 WtCom= 1.00D+00 WtEn= 0.00D+00
 Coeff-Com: -0.752D-06 0.165D-05 0.144D-04 0.300D-04 0.336D-04-0.707D-04
 Coeff-Com: -0.290D-03-0.222D-03 0.717D-03 0.215D-02-0.799D-03-0.629D-02
 Coeff-Com: -0.559D-02 0.142D-01 0.258D-01-0.432D-03-0.914D-01-0.105D+00
 Coeff-Com:  0.233D+00 0.934D+00
 Coeff:     -0.752D-06 0.165D-05 0.144D-04 0.300D-04 0.336D-04-0.707D-04
 Coeff:     -0.290D-03-0.222D-03 0.717D-03 0.215D-02-0.799D-03-0.629D-02
 Coeff:     -0.559D-02 0.142D-01 0.258D-01-0.432D-03-0.914D-01-0.105D+00
 Coeff:      0.233D+00 0.934D+00
 Gap=     0.123 Goal=   None    Shift=    0.000
 Gap=     0.148 Goal=   None    Shift=    0.000
 RMSDP=1.05D-08 MaxDP=1.04D-06 DE=-1.02D-10 OVMax= 8.66D-06

 Cycle  21  Pass 1  IDiag  1:
 Restarting incremental Fock formation.
 E= -1463.41035484091     Delta-E=       -0.000000000004 Rises=F Damp=F
 DIIS: error= 4.71D-08 at cycle  21 NSaved=  20.
 NSaved=20 IEnMin=20 EnMin= -1463.41035484091     IErMin=20 ErrMin= 4.71D-08
 ErrMax= 4.71D-08  0.00D+00 EMaxC= 1.00D-01 BMatC= 3.04D-12 BMatP= 1.09D-11
 IDIUse=1 WtCom= 1.00D+00 WtEn= 0.00D+00
 Coeff-Com: -0.488D-07 0.261D-05 0.856D-05 0.268D-04 0.146D-04-0.103D-03
 Coeff-Com: -0.209D-03-0.121D-03 0.839D-03 0.172D-02-0.151D-02-0.722D-02
 Coeff-Com: -0.231D-02 0.155D-01 0.314D-01-0.144D-01-0.153D+00-0.953D-01
 Coeff-Com:  0.334D+00 0.890D+00
 Coeff:     -0.488D-07 0.261D-05 0.856D-05 0.268D-04 0.146D-04-0.103D-03
 Coeff:     -0.209D-03-0.121D-03 0.839D-03 0.172D-02-0.151D-02-0.722D-02
 Coeff:     -0.231D-02 0.155D-01 0.314D-01-0.144D-01-0.153D+00-0.953D-01
 Coeff:      0.334D+00 0.890D+00
 Gap=     0.123 Goal=   None    Shift=    0.000
 Gap=     0.148 Goal=   None    Shift=    0.000
 RMSDP=7.38D-09 MaxDP=7.69D-07 DE=-4.09D-12 OVMax= 5.58D-06

 Error on total polarization charges =  0.02247
 SCF Done:  E(UM062X) =  -1463.41035484     A.U. after   21 cycles
            NFock= 21  Conv=0.74D-08     -V/T= 2.0042
 <Sx>= 0.0000 <Sy>= 0.0000 <Sz>= 0.5000 <S**2>= 0.8287 S= 0.5386
 <L.S>= 0.000000000000E+00
 KE= 1.457345528782D+03 PE=-7.485920111775D+03 EE= 2.551433421832D+03
 Annihilation of the first spin contaminant:
 S**2 before annihilation     0.8287,   after     0.7531
 Leave Link  502 at Sat Nov  8 10:39:40 2025, MaxMem= 30870077440 cpu:           35594.4 elap:             563.4
 (Enter /public/software/gauss/g16/l601.exe)
 Copying SCF densities to generalized density rwf, IOpCl= 1 IROHF=0.

 **********************************************************************

            Population analysis using the SCF density.

 **********************************************************************

 Orbital symmetries:
 Alpha Orbitals:
       Occupied  (A) (A) (A) (A) (A) (A) (A) (A) (A) (A) (A) (A)
                 (A) (A) (A) (A) (A) (A) (A) (A) (A) (A) (A) (A)
                 (A) (A) (A) (A) (A) (A) (A) (A) (A) (A) (A) (A)
                 (A) (A) (A) (A) (A) (A) (A) (A) (A) (A) (A) (A)
                 (A) (A) (A) (A) (A) (A) (A) (A) (A) (A) (A) (A)
                 (A) (A) (A) (A) (A) (A) (A) (A) (A) (A) (A) (A)
                 (A) (A) (A) (A) (A) (A) (A) (A) (A) (A) (A) (A)
                 (A) (A) (A) (A) (A)
       Virtual   (A) (A) (A) (A) (A) (A) (A) (A) (A) (A) (A) (A)
                 (A) (A) (A) (A) (A) (A) (A) (A) (A) (A) (A) (A)
                 (A) (A) (A) (A) (A) (A) (A) (A) (A) (A) (A) (A)
                 (A) (A) (A) (A) (A) (A) (A) (A) (A) (A) (A) (A)
                 (A) (A) (A) (A) (A) (A) (A) (A) (A) (A) (A) (A)
                 (A) (A) (A) (A) (A) (A) (A) (A) (A) (A) (A) (A)
                 (A) (A) (A) (A) (A) (A) (A) (A) (A) (A) (A) (A)
                 (A) (A) (A) (A) (A) (A) (A) (A) (A) (A) (A) (A)
                 (A) (A) (A) (A) (A) (A) (A) (A) (A) (A) (A) (A)
                 (A) (A) (A) (A) (A) (A) (A) (A) (A) (A) (A) (A)
                 (A) (A) (A) (A) (A) (A) (A) (A) (A) (A) (A) (A)
                 (A) (A) (A) (A) (A) (A) (A) (A) (A) (A) (A) (A)
                 (A) (A) (A) (A) (A) (A) (A) (A) (A) (A) (A) (A)
                 (A) (A) (A) (A) (A) (A) (A) (A) (A) (A) (A) (A)
                 (A) (A) (A) (A) (A) (A) (A) (A) (A) (A) (A) (A)
                 (A) (A) (A) (A) (A) (A) (A) (A) (A) (A) (A) (A)
                 (A) (A) (A) (A) (A) (A) (A) (A) (A) (A) (A) (A)
                 (A) (A) (A) (A) (A) (A) (A) (A) (A) (A) (A) (A)
                 (A) (A) (A) (A) (A) (A) (A) (A) (A) (A) (A) (A)
                 (A) (A) (A) (A) (A) (A) (A) (A) (A) (A) (A) (A)
                 (A) (A) (A) (A) (A) (A) (A) (A) (A) (A) (A) (A)
                 (A) (A) (A) (A) (A) (A) (A) (A) (A) (A) (A) (A)
                 (A) (A) (A) (A) (A) (A) (A) (A) (A) (A) (A) (A)
                 (A) (A) (A) (A) (A) (A) (A) (A) (A) (A) (A) (A)
                 (A) (A) (A) (A) (A) (A) (A) (A) (A) (A) (A) (A)
                 (A) (A) (A) (A) (A) (A) (A) (A) (A) (A) (A) (A)
                 (A) (A) (A) (A) (A) (A) (A) (A) (A) (A) (A) (A)
                 (A) (A) (A) (A) (A) (A) (A) (A) (A) (A) (A) (A)
                 (A) (A) (A) (A) (A) (A) (A) (A) (A) (A) (A) (A)
                 (A) (A) (A) (A) (A) (A) (A) (A) (A) (A) (A) (A)
                 (A) (A) (A) (A) (A) (A) (A) (A) (A) (A) (A) (A)
                 (A) (A) (A) (A) (A) (A) (A) (A) (A) (A) (A) (A)
                 (A) (A) (A) (A) (A) (A) (A) (A) (A) (A) (A) (A)
                 (A) (A) (A) (A) (A) (A) (A) (A) (A) (A) (A) (A)
                 (A) (A) (A) (A) (A) (A) (A) (A) (A) (A) (A) (A)
                 (A) (A) (A) (A) (A) (A) (A) (A) (A) (A) (A) (A)
                 (A) (A) (A) (A) (A) (A) (A) (A) (A) (A) (A) (A)
                 (A) (A) (A) (A) (A) (A) (A) (A) (A) (A) (A) (A)
                 (A) (A) (A) (A) (A) (A) (A) (A) (A) (A) (A) (A)
                 (A) (A) (A) (A) (A) (A) (A) (A) (A) (A) (A) (A)
                 (A) (A) (A) (A) (A) (A) (A) (A) (A) (A) (A) (A)
                 (A) (A) (A) (A) (A) (A) (A) (A) (A) (A) (A) (A)
                 (A) (A) (A) (A) (A) (A) (A) (A) (A) (A) (A) (A)
                 (A) (A) (A) (A) (A) (A) (A) (A) (A) (A) (A) (A)
                 (A) (A) (A) (A) (A) (A) (A) (A) (A) (A) (A) (A)
                 (A) (A) (A) (A) (A) (A) (A) (A) (A) (A) (A) (A)
                 (A) (A) (A) (A) (A) (A) (A) (A) (A) (A) (A) (A)
                 (A) (A) (A) (A) (A) (A) (A) (A) (A) (A) (A) (A)
                 (A) (A) (A) (A) (A) (A) (A) (A) (A) (A) (A) (A)
                 (A) (A) (A) (A) (A) (A) (A) (A) (A) (A) (A) (A)
                 (A) (A) (A) (A) (A) (A) (A) (A) (A) (A) (A) (A)
                 (A) (A) (A) (A) (A) (A) (A) (A) (A) (A) (A) (A)
                 (A) (A) (A) (A) (A) (A) (A) (A) (A) (A) (A) (A)
                 (A) (A) (A) (A) (A) (A) (A) (A) (A) (A) (A) (A)
                 (A) (A) (A) (A) (A) (A) (A) (A) (A) (A) (A) (A)
                 (A) (A) (A) (A) (A) (A) (A) (A) (A) (A) (A) (A)
                 (A) (A) (A) (A) (A) (A) (A) (A) (A) (A) (A) (A)
                 (A) (A) (A) (A) (A) (A) (A) (A) (A) (A) (A) (A)
                 (A) (A) (A) (A) (A) (A) (A) (A) (A) (A) (A) (A)
                 (A) (A) (A) (A) (A) (A) (A) (A) (A) (A) (A) (A)
                 (A) (A) (A) (A) (A) (A) (A) (A) (A) (A) (A) (A)
                 (A) (A) (A) (A) (A) (A) (A) (A) (A) (A) (A) (A)
                 (A) (A) (A) (A) (A) (A) (A) (A) (A) (A) (A) (A)
                 (A) (A) (A) (A) (A) (A) (A) (A) (A) (A) (A) (A)
                 (A) (A) (A) (A) (A) (A) (A) (A) (A) (A) (A) (A)
                 (A) (A) (A) (A) (A) (A) (A) (A) (A) (A) (A) (A)
                 (A) (A) (A) (A) (A) (A) (A) (A) (A) (A) (A) (A)
                 (A) (A) (A) (A) (A) (A) (A) (A) (A) (A) (A) (A)
                 (A) (A) (A) (A) (A) (A) (A) (A) (A) (A) (A) (A)
                 (A) (A) (A) (A) (A) (A) (A) (A) (A) (A) (A) (A)
                 (A) (A) (A) (A) (A) (A) (A) (A)
 Beta  Orbitals:
       Occupied  (A) (A) (A) (A) (A) (A) (A) (A) (A) (A) (A) (A)
                 (A) (A) (A) (A) (A) (A) (A) (A) (A) (A) (A) (A)
                 (A) (A) (A) (A) (A) (A) (A) (A) (A) (A) (A) (A)
                 (A) (A) (A) (A) (A) (A) (A) (A) (A) (A) (A) (A)
                 (A) (A) (A) (A) (A) (A) (A) (A) (A) (A) (A) (A)
                 (A) (A) (A) (A) (A) (A) (A) (A) (A) (A) (A) (A)
                 (A) (A) (A) (A) (A) (A) (A) (A) (A) (A) (A) (A)
                 (A) (A) (A) (A)
       Virtual   (A) (A) (A) (A) (A) (A) (A) (A) (A) (A) (A) (A)
                 (A) (A) (A) (A) (A) (A) (A) (A) (A) (A) (A) (A)
                 (A) (A) (A) (A) (A) (A) (A) (A) (A) (A) (A) (A)
                 (A) (A) (A) (A) (A) (A) (A) (A) (A) (A) (A) (A)
                 (A) (A) (A) (A) (A) (A) (A) (A) (A) (A) (A) (A)
                 (A) (A) (A) (A) (A) (A) (A) (A) (A) (A) (A) (A)
                 (A) (A) (A) (A) (A) (A) (A) (A) (A) (A) (A) (A)
                 (A) (A) (A) (A) (A) (A) (A) (A) (A) (A) (A) (A)
                 (A) (A) (A) (A) (A) (A) (A) (A) (A) (A) (A) (A)
                 (A) (A) (A) (A) (A) (A) (A) (A) (A) (A) (A) (A)
                 (A) (A) (A) (A) (A) (A) (A) (A) (A) (A) (A) (A)
                 (A) (A) (A) (A) (A) (A) (A) (A) (A) (A) (A) (A)
                 (A) (A) (A) (A) (A) (A) (A) (A) (A) (A) (A) (A)
                 (A) (A) (A) (A) (A) (A) (A) (A) (A) (A) (A) (A)
                 (A) (A) (A) (A) (A) (A) (A) (A) (A) (A) (A) (A)
                 (A) (A) (A) (A) (A) (A) (A) (A) (A) (A) (A) (A)
                 (A) (A) (A) (A) (A) (A) (A) (A) (A) (A) (A) (A)
                 (A) (A) (A) (A) (A) (A) (A) (A) (A) (A) (A) (A)
                 (A) (A) (A) (A) (A) (A) (A) (A) (A) (A) (A) (A)
                 (A) (A) (A) (A) (A) (A) (A) (A) (A) (A) (A) (A)
                 (A) (A) (A) (A) (A) (A) (A) (A) (A) (A) (A) (A)
                 (A) (A) (A) (A) (A) (A) (A) (A) (A) (A) (A) (A)
                 (A) (A) (A) (A) (A) (A) (A) (A) (A) (A) (A) (A)
                 (A) (A) (A) (A) (A) (A) (A) (A) (A) (A) (A) (A)
                 (A) (A) (A) (A) (A) (A) (A) (A) (A) (A) (A) (A)
                 (A) (A) (A) (A) (A) (A) (A) (A) (A) (A) (A) (A)
                 (A) (A) (A) (A) (A) (A) (A) (A) (A) (A) (A) (A)
                 (A) (A) (A) (A) (A) (A) (A) (A) (A) (A) (A) (A)
                 (A) (A) (A) (A) (A) (A) (A) (A) (A) (A) (A) (A)
                 (A) (A) (A) (A) (A) (A) (A) (A) (A) (A) (A) (A)
                 (A) (A) (A) (A) (A) (A) (A) (A) (A) (A) (A) (A)
                 (A) (A) (A) (A) (A) (A) (A) (A) (A) (A) (A) (A)
                 (A) (A) (A) (A) (A) (A) (A) (A) (A) (A) (A) (A)
                 (A) (A) (A) (A) (A) (A) (A) (A) (A) (A) (A) (A)
                 (A) (A) (A) (A) (A) (A) (A) (A) (A) (A) (A) (A)
                 (A) (A) (A) (A) (A) (A) (A) (A) (A) (A) (A) (A)
                 (A) (A) (A) (A) (A) (A) (A) (A) (A) (A) (A) (A)
                 (A) (A) (A) (A) (A) (A) (A) (A) (A) (A) (A) (A)
                 (A) (A) (A) (A) (A) (A) (A) (A) (A) (A) (A) (A)
                 (A) (A) (A) (A) (A) (A) (A) (A) (A) (A) (A) (A)
                 (A) (A) (A) (A) (A) (A) (A) (A) (A) (A) (A) (A)
                 (A) (A) (A) (A) (A) (A) (A) (A) (A) (A) (A) (A)
                 (A) (A) (A) (A) (A) (A) (A) (A) (A) (A) (A) (A)
                 (A) (A) (A) (A) (A) (A) (A) (A) (A) (A) (A) (A)
                 (A) (A) (A) (A) (A) (A) (A) (A) (A) (A) (A) (A)
                 (A) (A) (A) (A) (A) (A) (A) (A) (A) (A) (A) (A)
                 (A) (A) (A) (A) (A) (A) (A) (A) (A) (A) (A) (A)
                 (A) (A) (A) (A) (A) (A) (A) (A) (A) (A) (A) (A)
                 (A) (A) (A) (A) (A) (A) (A) (A) (A) (A) (A) (A)
                 (A) (A) (A) (A) (A) (A) (A) (A) (A) (A) (A) (A)
                 (A) (A) (A) (A) (A) (A) (A) (A) (A) (A) (A) (A)
                 (A) (A) (A) (A) (A) (A) (A) (A) (A) (A) (A) (A)
                 (A) (A) (A) (A) (A) (A) (A) (A) (A) (A) (A) (A)
                 (A) (A) (A) (A) (A) (A) (A) (A) (A) (A) (A) (A)
                 (A) (A) (A) (A) (A) (A) (A) (A) (A) (A) (A) (A)
                 (A) (A) (A) (A) (A) (A) (A) (A) (A) (A) (A) (A)
                 (A) (A) (A) (A) (A) (A) (A) (A) (A) (A) (A) (A)
                 (A) (A) (A) (A) (A) (A) (A) (A) (A) (A) (A) (A)
                 (A) (A) (A) (A) (A) (A) (A) (A) (A) (A) (A) (A)
                 (A) (A) (A) (A) (A) (A) (A) (A) (A) (A) (A) (A)
                 (A) (A) (A) (A) (A) (A) (A) (A) (A) (A) (A) (A)
                 (A) (A) (A) (A) (A) (A) (A) (A) (A) (A) (A) (A)
                 (A) (A) (A) (A) (A) (A) (A) (A) (A) (A) (A) (A)
                 (A) (A) (A) (A) (A) (A) (A) (A) (A) (A) (A) (A)
                 (A) (A) (A) (A) (A) (A) (A) (A) (A) (A) (A) (A)
                 (A) (A) (A) (A) (A) (A) (A) (A) (A) (A) (A) (A)
                 (A) (A) (A) (A) (A) (A) (A) (A) (A) (A) (A) (A)
                 (A) (A) (A) (A) (A) (A) (A) (A) (A) (A) (A) (A)
                 (A) (A) (A) (A) (A) (A) (A) (A) (A) (A) (A) (A)
                 (A) (A) (A) (A) (A) (A) (A) (A) (A) (A) (A) (A)
                 (A) (A) (A) (A) (A) (A) (A) (A) (A)
 The electronic state is 2-A.
 Alpha  occ. eigenvalues --  -89.93022 -25.19297 -25.19043 -19.61117 -14.76069
 Alpha  occ. eigenvalues --  -14.76025 -10.62238 -10.58975 -10.58161 -10.57342
 Alpha  occ. eigenvalues --  -10.56854 -10.56367 -10.56167 -10.55984 -10.55294
 Alpha  occ. eigenvalues --  -10.55102 -10.54978 -10.54859 -10.54738 -10.53782
 Alpha  occ. eigenvalues --  -10.53608 -10.52773 -10.52431  -8.28725  -7.11420
 Alpha  occ. eigenvalues --   -6.20640  -6.20465  -6.20372  -1.30965  -1.27690
 Alpha  occ. eigenvalues --   -1.14397  -1.08339  -1.06260  -0.98397  -0.91490
 Alpha  occ. eigenvalues --   -0.89762  -0.88504  -0.86111  -0.84389  -0.82990
 Alpha  occ. eigenvalues --   -0.80217  -0.78827  -0.76162  -0.71339  -0.68504
 Alpha  occ. eigenvalues --   -0.67062  -0.65303  -0.63851  -0.62655  -0.62199
 Alpha  occ. eigenvalues --   -0.60548  -0.60018  -0.58678  -0.57250  -0.56809
 Alpha  occ. eigenvalues --   -0.55517  -0.53189  -0.52545  -0.52076  -0.50910
 Alpha  occ. eigenvalues --   -0.49950  -0.49698  -0.49410  -0.49086  -0.48612
 Alpha  occ. eigenvalues --   -0.47644  -0.47087  -0.46931  -0.46013  -0.45695
 Alpha  occ. eigenvalues --   -0.45476  -0.45429  -0.44579  -0.44368  -0.43322
 Alpha  occ. eigenvalues --   -0.43200  -0.42634  -0.42074  -0.40003  -0.39198
 Alpha  occ. eigenvalues --   -0.38571  -0.34799  -0.33495  -0.31990  -0.31429
 Alpha  occ. eigenvalues --   -0.30169  -0.29274  -0.24117  -0.17987
 Alpha virt. eigenvalues --   -0.05707   0.00786   0.05637   0.06718   0.07217
 Alpha virt. eigenvalues --    0.07400   0.08562   0.08930   0.09472   0.09947
 Alpha virt. eigenvalues --    0.10605   0.10831   0.11058   0.11740   0.11911
 Alpha virt. eigenvalues --    0.12396   0.12693   0.13361   0.13674   0.14002
 Alpha virt. eigenvalues --    0.14703   0.14820   0.15497   0.16030   0.16288
 Alpha virt. eigenvalues --    0.16474   0.17380   0.18668   0.19464   0.20055
 Alpha virt. eigenvalues --    0.20720   0.20805   0.21875   0.22142   0.22709
 Alpha virt. eigenvalues --    0.22976   0.23245   0.23574   0.23961   0.24726
 Alpha virt. eigenvalues --    0.24899   0.25467   0.25842   0.26510   0.26865
 Alpha virt. eigenvalues --    0.27159   0.27486   0.27877   0.28329   0.29476
 Alpha virt. eigenvalues --    0.29644   0.29955   0.30648   0.30844   0.31664
 Alpha virt. eigenvalues --    0.31809   0.32318   0.32534   0.33243   0.34511
 Alpha virt. eigenvalues --    0.34922   0.35153   0.35277   0.35576   0.36086
 Alpha virt. eigenvalues --    0.36420   0.36903   0.37074   0.37553   0.38241
 Alpha virt. eigenvalues --    0.38551   0.38723   0.39236   0.39527   0.39978
 Alpha virt. eigenvalues --    0.40574   0.40666   0.41269   0.41586   0.41894
 Alpha virt. eigenvalues --    0.42515   0.43157   0.43402   0.43554   0.44101
 Alpha virt. eigenvalues --    0.44437   0.45102   0.45166   0.45727   0.46370
 Alpha virt. eigenvalues --    0.47061   0.47150   0.47840   0.48190   0.48731
 Alpha virt. eigenvalues --    0.48920   0.49296   0.49424   0.49691   0.50071
 Alpha virt. eigenvalues --    0.50396   0.50751   0.51115   0.51540   0.52643
 Alpha virt. eigenvalues --    0.53198   0.53903   0.54142   0.54374   0.54956
 Alpha virt. eigenvalues --    0.56168   0.56635   0.57119   0.57193   0.57726
 Alpha virt. eigenvalues --    0.58068   0.58741   0.59147   0.59875   0.60332
 Alpha virt. eigenvalues --    0.61696   0.61941   0.62300   0.62963   0.63589
 Alpha virt. eigenvalues --    0.64392   0.64541   0.64838   0.65692   0.65903
 Alpha virt. eigenvalues --    0.67299   0.67683   0.68224   0.68601   0.69078
 Alpha virt. eigenvalues --    0.69397   0.69497   0.70232   0.70597   0.70683
 Alpha virt. eigenvalues --    0.71741   0.72082   0.72264   0.72785   0.73001
 Alpha virt. eigenvalues --    0.73737   0.74105   0.74773   0.75072   0.75887
 Alpha virt. eigenvalues --    0.76768   0.77297   0.77779   0.78072   0.78355
 Alpha virt. eigenvalues --    0.79851   0.80177   0.80560   0.81363   0.81657
 Alpha virt. eigenvalues --    0.82189   0.82931   0.83497   0.83687   0.84610
 Alpha virt. eigenvalues --    0.85275   0.85583   0.86156   0.87007   0.87642
 Alpha virt. eigenvalues --    0.88607   0.89506   0.89717   0.90602   0.91029
 Alpha virt. eigenvalues --    0.91600   0.92355   0.92440   0.92997   0.93220
 Alpha virt. eigenvalues --    0.94198   0.94485   0.94696   0.95381   0.95724
 Alpha virt. eigenvalues --    0.95841   0.96693   0.97475   0.97688   0.98870
 Alpha virt. eigenvalues --    0.99838   1.00085   1.00424   1.01089   1.01363
 Alpha virt. eigenvalues --    1.01557   1.02025   1.02839   1.03635   1.04611
 Alpha virt. eigenvalues --    1.04978   1.05511   1.06305   1.06694   1.07259
 Alpha virt. eigenvalues --    1.08501   1.09706   1.09929   1.10277   1.10372
 Alpha virt. eigenvalues --    1.10769   1.12005   1.12618   1.13467   1.14263
 Alpha virt. eigenvalues --    1.14555   1.15107   1.16729   1.17368   1.17649
 Alpha virt. eigenvalues --    1.17977   1.18586   1.19131   1.20087   1.21007
 Alpha virt. eigenvalues --    1.21261   1.22292   1.23263   1.23797   1.24186
 Alpha virt. eigenvalues --    1.24706   1.25116   1.25775   1.26528   1.27655
 Alpha virt. eigenvalues --    1.28015   1.28725   1.29416   1.30652   1.30935
 Alpha virt. eigenvalues --    1.31637   1.31753   1.32505   1.33363   1.33622
 Alpha virt. eigenvalues --    1.34395   1.34616   1.34800   1.36111   1.37074
 Alpha virt. eigenvalues --    1.37493   1.38149   1.38959   1.39355   1.40477
 Alpha virt. eigenvalues --    1.41225   1.43096   1.43308   1.43962   1.44443
 Alpha virt. eigenvalues --    1.45372   1.45901   1.46467   1.47068   1.47770
 Alpha virt. eigenvalues --    1.48382   1.48782   1.48898   1.49510   1.49836
 Alpha virt. eigenvalues --    1.50007   1.50877   1.51615   1.51810   1.52584
 Alpha virt. eigenvalues --    1.52946   1.53348   1.53976   1.54552   1.54903
 Alpha virt. eigenvalues --    1.55072   1.56429   1.56980   1.57176   1.57547
 Alpha virt. eigenvalues --    1.58234   1.59646   1.60102   1.60593   1.60662
 Alpha virt. eigenvalues --    1.61081   1.61724   1.62561   1.63504   1.64438
 Alpha virt. eigenvalues --    1.65855   1.66131   1.66599   1.66808   1.68004
 Alpha virt. eigenvalues --    1.68757   1.69099   1.70211   1.70621   1.72323
 Alpha virt. eigenvalues --    1.73450   1.74114   1.74406   1.75335   1.75547
 Alpha virt. eigenvalues --    1.76744   1.77118   1.78137   1.78882   1.79734
 Alpha virt. eigenvalues --    1.80792   1.81185   1.81961   1.82541   1.83338
 Alpha virt. eigenvalues --    1.83485   1.84001   1.84827   1.85150   1.85696
 Alpha virt. eigenvalues --    1.87262   1.87936   1.88613   1.89475   1.90216
 Alpha virt. eigenvalues --    1.90270   1.91487   1.91776   1.92867   1.93021
 Alpha virt. eigenvalues --    1.95396   1.96074   1.96980   1.97507   1.99460
 Alpha virt. eigenvalues --    1.99953   2.01069   2.02170   2.03107   2.03710
 Alpha virt. eigenvalues --    2.04895   2.05301   2.06353   2.08031   2.08904
 Alpha virt. eigenvalues --    2.09425   2.11149   2.11466   2.11853   2.12184
 Alpha virt. eigenvalues --    2.13085   2.13306   2.14462   2.15977   2.16527
 Alpha virt. eigenvalues --    2.18442   2.19017   2.19952   2.20113   2.21027
 Alpha virt. eigenvalues --    2.21745   2.23210   2.23451   2.24466   2.25869
 Alpha virt. eigenvalues --    2.26455   2.27155   2.28333   2.29391   2.31154
 Alpha virt. eigenvalues --    2.31455   2.33213   2.34563   2.36272   2.36827
 Alpha virt. eigenvalues --    2.37160   2.37812   2.38239   2.40341   2.41286
 Alpha virt. eigenvalues --    2.41976   2.43270   2.44691   2.45193   2.46644
 Alpha virt. eigenvalues --    2.48329   2.48617   2.49500   2.53137   2.53399
 Alpha virt. eigenvalues --    2.55123   2.56151   2.56883   2.57407   2.58093
 Alpha virt. eigenvalues --    2.59086   2.59709   2.60643   2.61393   2.62670
 Alpha virt. eigenvalues --    2.63746   2.64103   2.65023   2.65862   2.66263
 Alpha virt. eigenvalues --    2.66700   2.67159   2.67952   2.68898   2.69638
 Alpha virt. eigenvalues --    2.70446   2.71053   2.71955   2.72547   2.73360
 Alpha virt. eigenvalues --    2.74441   2.74942   2.75954   2.75999   2.76520
 Alpha virt. eigenvalues --    2.77014   2.77402   2.78262   2.78487   2.80014
 Alpha virt. eigenvalues --    2.81615   2.82268   2.83568   2.83988   2.84678
 Alpha virt. eigenvalues --    2.84784   2.85341   2.85537   2.86811   2.87037
 Alpha virt. eigenvalues --    2.87983   2.88628   2.89557   2.90173   2.90729
 Alpha virt. eigenvalues --    2.91332   2.91779   2.92323   2.93281   2.94321
 Alpha virt. eigenvalues --    2.94672   2.94955   2.95410   2.96088   2.96355
 Alpha virt. eigenvalues --    2.96927   2.98004   2.98156   2.98600   2.98973
 Alpha virt. eigenvalues --    2.99546   2.99833   3.00129   3.00456   3.00772
 Alpha virt. eigenvalues --    3.01540   3.02193   3.02866   3.03054   3.03735
 Alpha virt. eigenvalues --    3.03917   3.04064   3.04895   3.05330   3.05730
 Alpha virt. eigenvalues --    3.05930   3.06401   3.07067   3.07945   3.08874
 Alpha virt. eigenvalues --    3.09143   3.09905   3.10691   3.10832   3.11861
 Alpha virt. eigenvalues --    3.12347   3.12371   3.13153   3.13478   3.14216
 Alpha virt. eigenvalues --    3.15000   3.15402   3.15947   3.16874   3.17222
 Alpha virt. eigenvalues --    3.17704   3.18323   3.18862   3.19480   3.19842
 Alpha virt. eigenvalues --    3.19994   3.20574   3.21031   3.21278   3.21992
 Alpha virt. eigenvalues --    3.23099   3.23395   3.23949   3.24061   3.25111
 Alpha virt. eigenvalues --    3.25575   3.26114   3.26810   3.27060   3.27879
 Alpha virt. eigenvalues --    3.28548   3.29519   3.30284   3.30695   3.31489
 Alpha virt. eigenvalues --    3.31791   3.32606   3.32691   3.33318   3.34048
 Alpha virt. eigenvalues --    3.34356   3.35491   3.36471   3.36892   3.37559
 Alpha virt. eigenvalues --    3.37897   3.38692   3.40079   3.40459   3.42098
 Alpha virt. eigenvalues --    3.42525   3.43321   3.43976   3.44247   3.44826
 Alpha virt. eigenvalues --    3.45207   3.46463   3.46944   3.48411   3.48609
 Alpha virt. eigenvalues --    3.49109   3.49501   3.50515   3.51099   3.51674
 Alpha virt. eigenvalues --    3.52097   3.52537   3.53027   3.53602   3.54211
 Alpha virt. eigenvalues --    3.54728   3.55240   3.55816   3.55912   3.57997
 Alpha virt. eigenvalues --    3.58305   3.59634   3.60263   3.61111   3.61903
 Alpha virt. eigenvalues --    3.62479   3.63116   3.63683   3.64347   3.65088
 Alpha virt. eigenvalues --    3.65876   3.66505   3.67449   3.67901   3.68500
 Alpha virt. eigenvalues --    3.70280   3.71244   3.71970   3.72447   3.73261
 Alpha virt. eigenvalues --    3.74365   3.74995   3.75824   3.76335   3.77321
 Alpha virt. eigenvalues --    3.77907   3.77966   3.79095   3.79943   3.80969
 Alpha virt. eigenvalues --    3.81520   3.81801   3.82314   3.83011   3.83892
 Alpha virt. eigenvalues --    3.84465   3.84796   3.85231   3.85538   3.86257
 Alpha virt. eigenvalues --    3.86816   3.87319   3.87936   3.88781   3.89499
 Alpha virt. eigenvalues --    3.89902   3.91050   3.92501   3.93166   3.93599
 Alpha virt. eigenvalues --    3.94721   3.94959   3.95751   3.95972   3.96224
 Alpha virt. eigenvalues --    3.97996   3.98766   3.99047   3.99780   4.01190
 Alpha virt. eigenvalues --    4.01644   4.02587   4.03004   4.04212   4.05465
 Alpha virt. eigenvalues --    4.06068   4.06099   4.07037   4.07276   4.08239
 Alpha virt. eigenvalues --    4.09597   4.10020   4.12198   4.12771   4.14076
 Alpha virt. eigenvalues --    4.14447   4.14561   4.16281   4.16813   4.17024
 Alpha virt. eigenvalues --    4.18030   4.19911   4.20438   4.20771   4.21449
 Alpha virt. eigenvalues --    4.22722   4.23659   4.23825   4.24409   4.24963
 Alpha virt. eigenvalues --    4.25422   4.26069   4.26363   4.26811   4.27496
 Alpha virt. eigenvalues --    4.27960   4.28424   4.29993   4.31057   4.32220
 Alpha virt. eigenvalues --    4.33860   4.34172   4.36495   4.36782   4.38620
 Alpha virt. eigenvalues --    4.39609   4.40016   4.41015   4.41794   4.43797
 Alpha virt. eigenvalues --    4.44085   4.44549   4.45041   4.47443   4.48524
 Alpha virt. eigenvalues --    4.49842   4.50607   4.50649   4.51579   4.52049
 Alpha virt. eigenvalues --    4.55082   4.55807   4.57540   4.58679   4.62925
 Alpha virt. eigenvalues --    4.63267   4.63723   4.64168   4.65972   4.66961
 Alpha virt. eigenvalues --    4.68469   4.69144   4.70241   4.72659   4.74003
 Alpha virt. eigenvalues --    4.75370   4.75998   4.77955   4.79488   4.82005
 Alpha virt. eigenvalues --    4.82676   4.85738   4.87693   4.88711   4.89733
 Alpha virt. eigenvalues --    4.91024   4.92264   4.94098   4.94953   4.95345
 Alpha virt. eigenvalues --    4.96092   4.96872   4.97344   4.98375   4.99046
 Alpha virt. eigenvalues --    5.00037   5.01916   5.02467   5.03416   5.05759
 Alpha virt. eigenvalues --    5.05921   5.06823   5.09219   5.09694   5.09768
 Alpha virt. eigenvalues --    5.10849   5.11923   5.13319   5.14387   5.14595
 Alpha virt. eigenvalues --    5.16349   5.17830   5.18061   5.19149   5.20463
 Alpha virt. eigenvalues --    5.20895   5.22004   5.23476   5.24179   5.24436
 Alpha virt. eigenvalues --    5.26108   5.26519   5.27371   5.28455   5.28755
 Alpha virt. eigenvalues --    5.32000   5.32784   5.34202   5.35299   5.35838
 Alpha virt. eigenvalues --    5.37545   5.38555   5.39652   5.43540   5.46477
 Alpha virt. eigenvalues --    5.47324   5.50523   5.54221   5.54582   5.56143
 Alpha virt. eigenvalues --    5.56609   5.58004   5.60520   5.60568   5.62321
 Alpha virt. eigenvalues --    5.64142   5.64693   5.68414   5.69939   5.74922
 Alpha virt. eigenvalues --    5.76066   5.77281   5.81661   5.84346   5.88045
 Alpha virt. eigenvalues --    5.93064   5.94063   5.97588   5.98468   6.03670
 Alpha virt. eigenvalues --    6.06846   6.08448   6.23097   6.27265   6.36926
 Alpha virt. eigenvalues --    6.41038   6.53093   6.54644   6.71605   6.78279
 Alpha virt. eigenvalues --    6.83421   6.84499   6.95209   6.95435   6.96346
 Alpha virt. eigenvalues --    6.97973   6.98606   6.99896   7.00427   7.01369
 Alpha virt. eigenvalues --    7.02735   7.05814   7.10472   7.11815   7.18511
 Alpha virt. eigenvalues --    7.23449   7.24289   7.27539   7.34461   7.35150
 Alpha virt. eigenvalues --    7.45384   8.44083   8.46691   8.54977   8.58084
 Alpha virt. eigenvalues --    8.80893   8.85028   8.89446   8.91373   8.91820
 Alpha virt. eigenvalues --    8.96069   8.99825   9.54905   9.56499  15.85866
 Alpha virt. eigenvalues --   20.40433  22.66682  22.96435  23.03079  23.04238
 Alpha virt. eigenvalues --   23.18769  23.23569  23.30591  23.32974  23.35642
 Alpha virt. eigenvalues --   23.40877  23.42946  23.49382  23.51789  23.63729
[...]
 ZZZY=              0.0669 XXYY=          -3055.5408 XXZZ=          -2339.2437 YYZZ=           -612.5857
 XXYZ=            -19.2060 YYXZ=            -27.9620 ZZXY=             64.3896
 N-N= 2.013730806320D+03 E-N=-7.485920109976D+03  KE= 1.457345528782D+03
                          Isotropic Fermi Contact Couplings
        Atom                 a.u.       MegaHertz       Gauss      10(-4) cm-1
     1  S(33)              0.01854       6.36818       2.27233       2.12420
     2  C(13)              0.01403      15.77225       5.62793       5.26106
     3  C(13)             -0.01095     -12.31125      -4.39296      -4.10659
     4  C(13)              0.01187      13.34966       4.76349       4.45297
     5  C(13)             -0.01554     -17.47460      -6.23537      -5.82890
     6  C(13)              0.02167      24.35911       8.69194       8.12533
     7  C(13)             -0.01429     -16.06855      -5.73366      -5.35989
     8  C(13)              0.01641      18.44900       6.58306       6.15392
     9  N(14)              0.01643       5.30762       1.89389       1.77043
    10  C(13)             -0.02979     -33.48707     -11.94902     -11.17008
    11  C(13)              0.04208      47.30927      16.88112      15.78067
    12  C(13)             -0.02158     -24.25858      -8.65606      -8.09179
    13  N(14)              0.00031       0.10049       0.03586       0.03352
    14  C(13)              0.01267      14.24601       5.08333       4.75196
    15  C(13)             -0.00967     -10.87538      -3.88061      -3.62764
    16  C(13)              0.01660      18.66451       6.65996       6.22581
    17  B(11)             -0.00177      -2.53442      -0.90434      -0.84539
    18  F(19)              0.00181       7.61723       2.71802       2.54083
    19  F(19)              0.00100       4.20559       1.50066       1.40284
    20  C(13)              0.01594      17.92113       6.39470       5.97785
    21  C(13)             -0.01534     -17.24901      -6.15488      -5.75365
    22  C(13)             -0.00311      -3.49907      -1.24856      -1.16717
    23  C(13)             -0.00423      -4.74972      -1.69482      -1.58434
    24  O(17)              0.01703     -10.32335      -3.68363      -3.44350
    25  H(1)               0.00057       2.54367       0.90765       0.84848
    26  H(1)              -0.00135      -6.04860      -2.15829      -2.01760
    27  H(1)              -0.00300     -13.40304      -4.78254      -4.47077
    28  H(1)               0.00025       1.10646       0.39481       0.36908
    29  H(1)              -0.00533     -23.83222      -8.50393      -7.94957
    30  H(1)              -0.00185      -8.29095      -2.95842      -2.76556
    31  H(1)               0.00010       0.43605       0.15559       0.14545
    32  H(1)              -0.00210      -9.39013      -3.35063      -3.13221
    33  H(1)               0.00107       4.78347       1.70686       1.59559
    34  H(1)               0.00149       6.64302       2.37039       2.21587
    35  H(1)               0.00159       7.09059       2.53010       2.36517
    36  H(1)               0.00007       0.29149       0.10401       0.09723
    37  H(1)              -0.00091      -4.06054      -1.44890      -1.35445
 --------------------------------------------------------
       Center         ----  Spin Dipole Couplings  ----
                      3XX-RR        3YY-RR        3ZZ-RR
 --------------------------------------------------------
     1   Atom       -0.188381     -0.151732      0.340113
     2   Atom       -0.060248     -0.063956      0.124205
     3   Atom        0.021862      0.022080     -0.043942
     4   Atom       -0.046367     -0.046698      0.093066
     5   Atom        0.025099      0.014442     -0.039541
     6   Atom       -0.098838     -0.098757      0.197595
     7   Atom        0.023059      0.009453     -0.032512
     8   Atom       -0.066570     -0.074806      0.141376
     9   Atom       -0.107670     -0.112540      0.220210
    10   Atom        0.070347      0.053435     -0.123782
    11   Atom       -0.175914     -0.179603      0.355517
    12   Atom        0.022521      0.030848     -0.053369
    13   Atom       -0.022957     -0.025820      0.048776
    14   Atom       -0.061521     -0.063666      0.125186
    15   Atom        0.009153      0.007772     -0.016925
    16   Atom       -0.067971     -0.071389      0.139361
    17   Atom       -0.000518      0.002873     -0.002355
    18   Atom        0.004076     -0.000241     -0.003835
    19   Atom        0.005040      0.003138     -0.008178
    20   Atom       -0.046414     -0.046990      0.093404
    21   Atom        0.043172      0.039184     -0.082356
    22   Atom       -0.000390      0.001766     -0.001376
    23   Atom       -0.016943     -0.008712      0.025655
    24   Atom       -0.180469     -0.194255      0.374724
    25   Atom       -0.000094      0.002144     -0.002050
    26   Atom       -0.004718      0.006405     -0.001687
    27   Atom       -0.011159      0.013341     -0.002182
    28   Atom        0.004891     -0.001647     -0.003245
    29   Atom        0.006471     -0.004739     -0.001732
    30   Atom       -0.000916      0.002056     -0.001140
    31   Atom        0.001790      0.000164     -0.001955
    32   Atom        0.009329     -0.007267     -0.002062
    33   Atom        0.002278     -0.000102     -0.002176
    34   Atom       -0.000496      0.001912     -0.001416
    35   Atom       -0.000541      0.001863     -0.001321
    36   Atom       -0.000934      0.001989     -0.001056
    37   Atom        0.005619     -0.003591     -0.002027
 --------------------------------------------------------
                        XY            XZ            YZ
 --------------------------------------------------------
     1   Atom        0.012982      0.009727     -0.032063
     2   Atom        0.003780      0.002910     -0.011771
     3   Atom        0.003508     -0.001036      0.004209
     4   Atom        0.002892      0.002893     -0.008949
     5   Atom        0.005967     -0.001185      0.002992
     6   Atom        0.004542      0.004491     -0.018342
     7   Atom        0.002511     -0.001048      0.001190
     8   Atom        0.000556     -0.000987      0.005255
     9   Atom        0.005405     -0.001976      0.017210
    10   Atom       -0.001644     -0.002693     -0.002151
    11   Atom        0.003592      0.014853     -0.000594
    12   Atom       -0.002214     -0.005612      0.001833
    13   Atom        0.002320      0.004978     -0.000821
    14   Atom        0.001222      0.012824     -0.004637
    15   Atom       -0.000288     -0.002111      0.000233
    16   Atom       -0.001632      0.017639     -0.008436
    17   Atom       -0.000324      0.000049      0.000298
    18   Atom        0.017572     -0.014932     -0.013821
    19   Atom        0.011207      0.003200      0.003155
    20   Atom       -0.000403      0.000099      0.005491
    21   Atom        0.001254     -0.001416     -0.004517
    22   Atom       -0.000247     -0.000055     -0.000017
    23   Atom        0.002128      0.001204     -0.002154
    24   Atom        0.001227      0.011631     -0.037198
    25   Atom        0.002162      0.000109      0.000225
    26   Atom        0.001163      0.000148      0.000496
    27   Atom        0.004488      0.000347      0.000664
    28   Atom        0.002875      0.000018      0.000229
    29   Atom        0.023366     -0.000331     -0.000680
    30   Atom        0.009258      0.000164     -0.000654
    31   Atom       -0.000897     -0.000313      0.000113
    32   Atom        0.005209     -0.000513     -0.000581
    33   Atom        0.005309     -0.000142     -0.000086
    34   Atom        0.000476      0.000381      0.000944
    35   Atom        0.000430     -0.000422     -0.001068
    36   Atom        0.000108     -0.000003     -0.000055
    37   Atom       -0.000284     -0.000182     -0.000080
 --------------------------------------------------------


 ---------------------------------------------------------------------------------
              Anisotropic Spin Dipole Couplings in Principal Axis System
 ---------------------------------------------------------------------------------

       Atom             a.u.   MegaHertz   Gauss  10(-4) cm-1        Axes

              Baa    -0.1932    -7.922    -2.827    -2.642  0.9453 -0.3242 -0.0367
     1 S(33)  Bbb    -0.1491    -6.114    -2.182    -2.039  0.3259  0.9438  0.0554
              Bcc     0.3423    14.036     5.008     4.682  0.0167 -0.0643  0.9978
 
              Baa    -0.0670    -8.993    -3.209    -3.000 -0.5066  0.8600  0.0607
     2 C(13)  Bbb    -0.0580    -7.778    -2.775    -2.595  0.8620  0.5065  0.0190
              Bcc     0.1250    16.771     5.984     5.594  0.0144 -0.0619  0.9980
 
              Baa    -0.0442    -5.936    -2.118    -1.980  0.0191 -0.0643  0.9977
     3 C(13)  Bbb     0.0187     2.506     0.894     0.836  0.7303 -0.6807 -0.0578
              Bcc     0.0256     3.430     1.224     1.144  0.6829  0.7298  0.0340
 
              Baa    -0.0499    -6.702    -2.391    -2.236 -0.6567  0.7517  0.0603
     4 C(13)  Bbb    -0.0437    -5.870    -2.095    -1.958  0.7539  0.6565  0.0270
              Bcc     0.0937    12.572     4.486     4.194  0.0193 -0.0632  0.9978
 
              Baa    -0.0397    -5.333    -1.903    -1.779  0.0235 -0.0577  0.9981
     5 C(13)  Bbb     0.0120     1.606     0.573     0.536 -0.4083  0.9107  0.0623
              Bcc     0.0278     3.727     1.330     1.243  0.9125  0.4090  0.0021
 
              Baa    -0.1042   -13.986    -4.991    -4.665 -0.6698  0.7405  0.0550
     6 C(13)  Bbb    -0.0946   -12.689    -4.528    -4.233  0.7424  0.6693  0.0306
              Bcc     0.1988    26.675     9.518     8.898  0.0141 -0.0613  0.9980
 
              Baa    -0.0326    -4.370    -1.559    -1.458  0.0202 -0.0295  0.9994
     7 C(13)  Bbb     0.0090     1.214     0.433     0.405 -0.1740  0.9842  0.0326
              Bcc     0.0235     3.156     1.126     1.053  0.9845  0.1745 -0.0147
 
              Baa    -0.0750   -10.061    -3.590    -3.356 -0.0688  0.9973 -0.0245
     8 C(13)  Bbb    -0.0665    -8.928    -3.186    -2.978  0.9976  0.0689  0.0030
              Bcc     0.1415    18.989     6.776     6.334 -0.0047  0.0243  0.9997
 
              Baa    -0.1168    -4.503    -1.607    -1.502 -0.5180  0.8541 -0.0467
     9 N(14)  Bbb    -0.1043    -4.024    -1.436    -1.342  0.8553  0.5176 -0.0222
              Bcc     0.2211     8.528     3.043     2.844 -0.0052  0.0514  0.9987
 
              Baa    -0.1238   -16.619    -5.930    -5.543  0.0140  0.0123  0.9998
    10 C(13)  Bbb     0.0533     7.154     2.553     2.386  0.0939  0.9955 -0.0135
              Bcc     0.0705     9.465     3.377     3.157  0.9955 -0.0941 -0.0128
 
              Baa    -0.1819   -24.413    -8.711    -8.143 -0.5414  0.8406  0.0159
    11 C(13)  Bbb    -0.1740   -23.350    -8.332    -7.789  0.8403  0.5416 -0.0230
              Bcc     0.3559    47.763    17.043    15.932  0.0279 -0.0009  0.9996
 
              Baa    -0.0538    -7.221    -2.577    -2.409  0.0727 -0.0197  0.9972
    12 C(13)  Bbb     0.0223     2.992     1.068     0.998  0.9626  0.2631 -0.0650
              Bcc     0.0315     4.230     1.509     1.411 -0.2611  0.9646  0.0381
 
              Baa    -0.0272    -1.051    -0.375    -0.351 -0.5131  0.8573  0.0429
    13 N(14)  Bbb    -0.0219    -0.844    -0.301    -0.281  0.8556  0.5148 -0.0543
              Bcc     0.0491     1.895     0.676     0.632  0.0686 -0.0088  0.9976
 
              Baa    -0.0648    -8.691    -3.101    -2.899 -0.5408  0.8392  0.0570
    14 C(13)  Bbb    -0.0614    -8.240    -2.940    -2.749  0.8384  0.5433 -0.0441
              Bcc     0.1262    16.931     6.041     5.648  0.0680 -0.0239  0.9974
 
              Baa    -0.0171    -2.294    -0.819    -0.765  0.0801 -0.0084  0.9968
    15 C(13)  Bbb     0.0077     1.035     0.369     0.345  0.1870  0.9823 -0.0067
              Bcc     0.0094     1.259     0.449     0.420  0.9791 -0.1869 -0.0802
 
              Baa    -0.0721    -9.669    -3.450    -3.225  0.3346  0.9423  0.0097
    16 C(13)  Bbb    -0.0691    -9.278    -3.311    -3.095  0.9386 -0.3324 -0.0928
              Bcc     0.1412    18.947     6.761     6.320  0.0843 -0.0402  0.9956
 
              Baa    -0.0024    -0.406    -0.145    -0.136 -0.0366 -0.0589  0.9976
    17 B(11)  Bbb    -0.0005    -0.093    -0.033    -0.031  0.9950  0.0908  0.0418
              Bcc     0.0029     0.500     0.178     0.167 -0.0930  0.9941  0.0553
 
              Baa    -0.0161    -8.084    -2.884    -2.696 -0.2953  0.7925  0.5337
    18 F(19)  Bbb    -0.0153    -7.674    -2.738    -2.560  0.7046 -0.1966  0.6818
              Bcc     0.0314    15.757     5.623     5.256  0.6453  0.5773 -0.5003
 
              Baa    -0.0090    -4.530    -1.616    -1.511 -0.0767 -0.1836  0.9800
    19 F(19)  Bbb    -0.0071    -3.588    -1.280    -1.197 -0.6862  0.7228  0.0818
              Bcc     0.0162     8.118     2.897     2.708  0.7233  0.6662  0.1814
 
              Baa    -0.0474    -6.357    -2.269    -2.121  0.3890  0.9205 -0.0362
    20 C(13)  Bbb    -0.0462    -6.205    -2.214    -2.070  0.9212 -0.3887  0.0146
              Bcc     0.0936    12.563     4.483     4.190  0.0006  0.0390  0.9992
 
              Baa    -0.0825   -11.076    -3.952    -3.695  0.0109  0.0370  0.9993
    21 C(13)  Bbb     0.0389     5.227     1.865     1.743 -0.2945  0.9551 -0.0321
              Bcc     0.0436     5.849     2.087     1.951  0.9556  0.2939 -0.0213
 
              Baa    -0.0014    -0.185    -0.066    -0.062  0.0577  0.0098  0.9983
    22 C(13)  Bbb    -0.0004    -0.056    -0.020    -0.019  0.9920  0.1117 -0.0584
              Bcc     0.0018     0.241     0.086     0.080 -0.1121  0.9937 -0.0033
 
              Baa    -0.0175    -2.352    -0.839    -0.785  0.9691 -0.2435 -0.0392
    23 C(13)  Bbb    -0.0083    -1.112    -0.397    -0.371  0.2454  0.9680  0.0527
              Bcc     0.0258     3.464     1.236     1.156  0.0251 -0.0607  0.9978
 
              Baa    -0.1969    14.249     5.084     4.753 -0.1212  0.9904  0.0669
    24 O(17)  Bbb    -0.1805    13.058     4.660     4.356  0.9924  0.1223 -0.0126
              Bcc     0.3774   -27.307    -9.744    -9.109  0.0207 -0.0649  0.9977
 
              Baa    -0.0021    -1.100    -0.393    -0.367  0.0077 -0.0575  0.9983
    25 H(1)   Bbb    -0.0014    -0.752    -0.268    -0.251  0.8547 -0.5179 -0.0364
              Bcc     0.0035     1.852     0.661     0.618  0.5191  0.8535  0.0451
 
              Baa    -0.0048    -2.583    -0.922    -0.862  0.9944 -0.1015 -0.0309
    26 H(1)   Bbb    -0.0017    -0.915    -0.327    -0.305  0.0244 -0.0644  0.9976
              Bcc     0.0066     3.498     1.248     1.167  0.1032  0.9928  0.0616
 
              Baa    -0.0120    -6.381    -2.277    -2.129  0.9845 -0.1740 -0.0232
    27 H(1)   Bbb    -0.0022    -1.178    -0.420    -0.393  0.0152 -0.0470  0.9988
              Bcc     0.0142     7.560     2.698     2.522  0.1749  0.9836  0.0437
 
              Baa    -0.0033    -1.771    -0.632    -0.591  0.1082 -0.3151  0.9429
    28 H(1)   Bbb    -0.0027    -1.418    -0.506    -0.473 -0.3363  0.8809  0.3330
              Bcc     0.0060     3.189     1.138     1.064  0.9355  0.3531  0.0106
 
              Baa    -0.0232   -12.362    -4.411    -4.123 -0.6189  0.7853  0.0154
    29 H(1)   Bbb    -0.0017    -0.931    -0.332    -0.310  0.0296  0.0038  0.9996
              Bcc     0.0249    13.292     4.743     4.434  0.7849  0.6191 -0.0256
 
              Baa    -0.0088    -4.720    -1.684    -1.574  0.7582 -0.6482 -0.0711
    30 H(1)   Bbb    -0.0011    -0.595    -0.212    -0.198  0.0770 -0.0193  0.9968
              Bcc     0.0100     5.314     1.896     1.773  0.6475  0.7613 -0.0352
 
              Baa    -0.0020    -1.057    -0.377    -0.353  0.0781 -0.0199  0.9968
    31 H(1)   Bbb    -0.0002    -0.124    -0.044    -0.041  0.4035  0.9149 -0.0134
              Bcc     0.0022     1.181     0.422     0.394  0.9116 -0.4033 -0.0794
 
              Baa    -0.0088    -4.691    -1.674    -1.565 -0.2741  0.9597  0.0620
    32 H(1)   Bbb    -0.0021    -1.104    -0.394    -0.368  0.0657 -0.0456  0.9968
              Bcc     0.0109     5.795     2.068     1.933  0.9595  0.2773 -0.0505
 
              Baa    -0.0044    -2.323    -0.829    -0.775 -0.6251  0.7805 -0.0102
    33 H(1)   Bbb    -0.0022    -1.163    -0.415    -0.388  0.0084  0.0197  0.9998
              Bcc     0.0065     3.485     1.244     1.163  0.7805  0.6248 -0.0189
 
              Baa    -0.0017    -0.917    -0.327    -0.306 -0.2111 -0.2199  0.9524
    34 H(1)   Bbb    -0.0006    -0.296    -0.106    -0.099  0.9572 -0.2441  0.1558
              Bcc     0.0023     1.213     0.433     0.405  0.1983  0.9445  0.2620
 
              Baa    -0.0017    -0.916    -0.327    -0.306  0.2448  0.2501  0.9368
    35 H(1)   Bbb    -0.0006    -0.305    -0.109    -0.102  0.9515 -0.2479 -0.1824
              Bcc     0.0023     1.221     0.436     0.407  0.1866  0.9359 -0.2987
 
              Baa    -0.0011    -0.564    -0.201    -0.188  0.0103  0.0178  0.9998
    36 H(1)   Bbb    -0.0009    -0.500    -0.178    -0.167  0.9993 -0.0370 -0.0096
              Bcc     0.0020     1.064     0.380     0.355  0.0369  0.9992 -0.0182
 
              Baa    -0.0036    -1.923    -0.686    -0.642  0.0318  0.9980  0.0542
    37 H(1)   Bbb    -0.0020    -1.081    -0.386    -0.361  0.0218 -0.0549  0.9983
              Bcc     0.0056     3.005     1.072     1.002  0.9993 -0.0306 -0.0235
 

 ---------------------------------------------------------------------------------

 No NMR shielding tensors so no spin-rotation constants.
 Leave Link  601 at Sat Nov  8 10:39:43 2025, MaxMem= 30870077440 cpu:             161.7 elap:               2.9
 (Enter /public/software/gauss/g16/l9999.exe)
 1\1\GINC-CU303\SP\UM062X\def2TZVPP\C17H13B1F2N2O1S1(1-,2)\BAIDING\08-N
 ov-2025\0\\#p M062X/DEF2TZVPP scrf=(solvent=water) em=GD3\\Energy calc
 ulation for M99948989_reduced\\-1,2\S,0,-3.630916,-0.696473,-0.087387\
 C,0,-5.358003,-0.326316,-0.03082\C,0,-5.562665,1.053579,0.06003\C,0,-4
 .385995,1.797864,0.084892\C,0,-3.212725,1.02024,0.01558\C,0,-1.888251,
 1.511427,0.029743\C,0,-0.733501,0.75014,-0.025994\C,0,0.577666,1.26985
 ,-0.018123\N,0,1.710963,0.473136,-0.013701\C,0,2.82845,1.302941,-0.032
 035\C,0,4.117572,0.792517,-0.051242\C,0,4.336001,-0.607483,-0.070755\N
 ,0,3.251884,-1.477627,-0.019908\C,0,3.732112,-2.756353,-0.085662\C,0,5
 .120757,-2.729514,-0.180569\C,0,5.510194,-1.374218,-0.169987\B,0,1.782
 904,-1.058699,0.200488\F,0,1.364352,-1.396599,1.5056\F,0,0.947902,-1.7
 36184,-0.710448\C,0,2.381201,2.671278,-0.053097\C,0,1.004785,2.636313,
 -0.042141\C,0,3.27331,3.872311,-0.096435\C,0,-6.346226,-1.346631,-0.07
 6481\O,0,-6.125622,-2.572396,-0.159824\H,0,-6.557828,1.483842,0.106296
 \H,0,-4.347605,2.879392,0.153365\H,0,-1.807183,2.594354,0.097004\H,0,-
 0.821487,-0.33075,-0.092708\H,0,4.964906,1.467912,-0.07559\H,0,3.05997
 3,-3.603048,-0.059266\H,0,5.766532,-3.594537,-0.254109\H,0,6.51392,-0.
 975648,-0.238356\H,0,0.343224,3.492322,-0.06929\H,0,3.946943,3.904473,
 0.768034\H,0,3.906009,3.871444,-0.99199\H,0,2.685042,4.793586,-0.10021
 7\H,0,-7.385637,-0.968309,-0.031368\\Version=ES64L-G16RevA.03\State=2-
 A\HF=-1463.4103548\S2=0.828743\S2-1=0.\S2A=0.753059\RMSD=7.383e-09\Dip
 ole=0.8491415,4.6537871,-0.2433759\Quadrupole=-16.6460159,10.5430634,6
 .1029526,-15.799929,-3.3743572,0.3018356\PG=C01 [X(C17H13B1F2N2O1S1)]\
 \@


 ABSOLUTISM, OBSOLETISM -- IF IT WORKS, IT'S OUT OF DATE

                          -- STAFFORD BEER
 Job cpu time:       0 days 10 hours  2 minutes 56.7 seconds.
 Elapsed time:       0 days  0 hours  9 minutes 33.1 seconds.
 File lengths (MBytes):  RWF=    979 Int=      0 D2E=      0 Chk=     63 Scr=      1
 Normal termination of Gaussian 16 at Sat Nov  8 10:39:43 2025.
