 Entering Gaussian System, Link 0=g16
 Input=M99948989_sp.gjf
 Output=M99948989_sp.log
 Initial command:
 /public/software/gauss/g16/l1.exe "/public/home/baiding/1101_v2_sp/tmp_M99948989_sp_1575143/Gau-1483162.inp" -scrdir="/public/home/baiding/1101_v2_sp/tmp_M99948989_sp_1575143/"
 Entering Link 1 = /public/software/gauss/g16/l1.exe PID=   1483163.
  
 Copyright (c) 1988,1990,1992,1993,1995,1998,2003,2009,2016,
            Gaussian, Inc.  All Rights Reserved.
  
 This is part of the Gaussian(R) 16 program.  It is based on
 the Gaussian(R) 09 system (copyright 2009, Gaussian, Inc.),
 the Gaussian(R) 03 system (copyright 2003, Gaussian, Inc.),
 the Gaussian(R) 98 system (copyright 1998, Gaussian, Inc.),
 the Gaussian(R) 94 system (copyright 1995, Gaussian, Inc.),
 the Gaussian 92(TM) system (copyright 1992, Gaussian, Inc.),
 the Gaussian 90(TM) system (copyright 1990, Gaussian, Inc.),
 the Gaussian 88(TM) system (copyright 1988, Gaussian, Inc.),
 the Gaussian 86(TM) system (copyright 1986, Carnegie Mellon
 University), and the Gaussian 82(TM) system (copyright 1983,
 Carnegie Mellon University). Gaussian is a federally registered
 trademark of Gaussian, Inc.
  
 This software contains proprietary and confidential information,
 including trade secrets, belonging to Gaussian, Inc.
  
 This software is provided under written license and may be
 used, copied, transmitted, or stored only in accord with that
 written license.
  
 The following legend is applicable only to US Government
 contracts under FAR:
  
                    RESTRICTED RIGHTS LEGEND
  
 Use, reproduction and disclosure by the US Government is
 subject to restrictions as set forth in subparagraphs (a)
 and (c) of the Commercial Computer Software - Restricted
 Rights clause in FAR 52.227-19.
  
 Gaussian, Inc.
 340 Quinnipiac St., Bldg. 40, Wallingford CT 06492
  
  
 ---------------------------------------------------------------
 Warning -- This program may not be used in any manner that
 competes with the business of Gaussian, Inc. or will provide
 assistance to any competitor of Gaussian, Inc.  The licensee
 of this program is prohibited from giving any competitor of
 Gaussian, Inc. access to this program.  By using this program,
 the user acknowledges that Gaussian, Inc. is engaged in the
 business of creating and licensing software in the field of
 computational chemistry and represents and warrants to the
 licensee that it is not a competitor of Gaussian, Inc. and that
 it will not use this program in any manner prohibited above.
 ---------------------------------------------------------------
  

 Cite this work as:
 Gaussian 16, Revision A.03,
 M. J. Frisch, G. W. Trucks, H. B. Schlegel, G. E. Scuseria, 
 M. A. Robb, J. R. Cheeseman, G. Scalmani, V. Barone, 
 G. A. Petersson, H. Nakatsuji, X. Li, M. Caricato, A. V. Marenich, 
 J. Bloino, B. G. Janesko, R. Gomperts, B. Mennucci, H. P. Hratchian, 
 J. V. Ortiz, A. F. Izmaylov, J. L. Sonnenberg, D. Williams-Young, 
 F. Ding, F. Lipparini, F. Egidi, J. Goings, B. Peng, A. Petrone, 
 T. Henderson, D. Ranasinghe, V. G. Zakrzewski, J. Gao, N. Rega, 
 G. Zheng, W. Liang, M. Hada, M. Ehara, K. Toyota, R. Fukuda, 
 J. Hasegawa, M. Ishida, T. Nakajima, Y. Honda, O. Kitao, H. Nakai, 
 T. Vreven, K. Throssell, J. A. Montgomery, Jr., J. E. Peralta, 
 F. Ogliaro, M. J. Bearpark, J. J. Heyd, E. N. Brothers, K. N. Kudin, 
 V. N. Staroverov, T. A. Keith, R. Kobayashi, J. Normand, 
 K. Raghavachari, A. P. Rendell, J. C. Burant, S. S. Iyengar, 
 J. Tomasi, M. Cossi, J. M. Millam, M. Klene, C. Adamo, R. Cammi, 
 J. W. Ochterski, R. L. Martin, K. Morokuma, O. Farkas, 
 J. B. Foresman, and D. J. Fox, Gaussian, Inc., Wallingford CT, 2016.
 
 ******************************************
 Gaussian 16:  ES64L-G16RevA.03 25-Dec-2016
                 8-Nov-2025 
 ******************************************
 %nprocshared=64
 Will use up to   64 processors via shared memory.
 %mem=230GB
 %chk=M99948989_sp.chk
 ----------------------------------------------
 #p M062X/DEF2TZVPP scrf=(solvent=water) em=GD3
 ----------------------------------------------
 1/38=1,172=1/1;
 2/12=2,17=6,18=5,40=1/2;
 3/5=44,7=202,11=2,25=1,30=1,70=2201,72=1,74=-55,124=31/1,2,3;
 4//1;
 5/5=2,38=5,53=1/2;
 6/7=2,8=2,9=2,10=2,28=1/1;
 99/5=1,9=1/99;
 Leave Link    1 at Sat Nov  8 10:39:44 2025, MaxMem= 30870077440 cpu:              14.3 elap:               0.2
 (Enter /public/software/gauss/g16/l101.exe)
 --------------------------------
 Energy calculation for M99948989
 --------------------------------
 Symbolic Z-matrix:
 Charge =  0 Multiplicity = 1
 S                    -3.65093  -0.70206  -0.1076 
 C                    -5.35399  -0.30462  -0.02161 
 C                    -5.55283   1.0584    0.1145 
 C                    -4.35022   1.78834   0.15022 
 C                    -3.21588   0.99062   0.0423 
 C                    -1.86172   1.47412   0.0529 
 C                    -0.73903   0.71563  -0.04277 
 C                     0.59135   1.2614   -0.03596 
 N                     1.69973   0.47103  -0.01464 
 C                     2.8184    1.30389  -0.03488 
 C                     4.10306   0.7819   -0.05019 
 C                     4.32992  -0.59626  -0.05424 
 N                     3.25502  -1.48396  -0.00931 
 C                     3.75338  -2.73629  -0.07031 
 C                     5.1561   -2.69484  -0.15746 
 C                     5.52304  -1.35023  -0.14499 
 B                     1.77038  -1.0768    0.20078 
 F                     1.36036  -1.39639   1.49896 
 F                     0.95857  -1.74129  -0.72251 
 C                     2.37865   2.66711  -0.0747 
 C                     0.9979    2.62739  -0.07434 
 C                     3.26157   3.87247  -0.12665 
 C                    -6.37137  -1.32754  -0.09091 
 O                    -6.14598  -2.53332  -0.21448 
 H                    -6.54114   1.49891   0.18471 
 H                    -4.29004   2.86566   0.2522 
 H                    -1.77714   2.5535    0.15321 
 H                    -0.81521  -0.3629   -0.142 
 H                     4.95073   1.45813  -0.07992 
 H                     3.09983  -3.59795  -0.04705 
 H                     5.80722  -3.55496  -0.22529 
 H                     6.51903  -0.93289  -0.20505 
 H                     0.33088   3.4772   -0.1171 
 H                     3.93899   3.90685   0.7335 
 H                     3.8851    3.86966  -1.02758 
 H                     2.66481   4.78736  -0.12858 
 H                    -7.40587  -0.9443   -0.02322 
 
 ITRead=  0  0  0  0  0  0  0  0  0  0  0  0  0  0  0  0  0  0  0  0
 ITRead=  0  0  0  0  0  0  0  0  0  0  0  0  0  0  0  0  0
 MicOpt= -1 -1 -1 -1 -1 -1 -1 -1 -1 -1 -1 -1 -1 -1 -1 -1 -1 -1 -1 -1
 MicOpt= -1 -1 -1 -1 -1 -1 -1 -1 -1 -1 -1 -1 -1 -1 -1 -1 -1
 NAtoms=     37 NQM=       37 NQMF=       0 NMMI=      0 NMMIF=      0
                NMic=       0 NMicF=      0.
                    Isotopes and Nuclear Properties:
 (Nuclear quadrupole moments (NQMom) in fm**2, nuclear magnetic moments (NMagM)
  in nuclear magnetons)

  Atom         1           2           3           4           5           6           7           8           9          10
 IAtWgt=          32          12          12          12          12          12          12          12          14          12
 AtmWgt=  31.9720718  12.0000000  12.0000000  12.0000000  12.0000000  12.0000000  12.0000000  12.0000000  14.0030740  12.0000000
 NucSpn=           0           0           0           0           0           0           0           0           2           0
 AtZEff=  -0.0000000  -0.0000000  -0.0000000  -0.0000000  -0.0000000  -0.0000000  -0.0000000  -0.0000000  -0.0000000  -0.0000000
 NQMom=    0.0000000   0.0000000   0.0000000   0.0000000   0.0000000   0.0000000   0.0000000   0.0000000   2.0440000   0.0000000
 NMagM=    0.0000000   0.0000000   0.0000000   0.0000000   0.0000000   0.0000000   0.0000000   0.0000000   0.4037610   0.0000000
 AtZNuc=  16.0000000   6.0000000   6.0000000   6.0000000   6.0000000   6.0000000   6.0000000   6.0000000   7.0000000   6.0000000

  Atom        11          12          13          14          15          16          17          18          19          20
 IAtWgt=          12          12          14          12          12          12          11          19          19          12
 AtmWgt=  12.0000000  12.0000000  14.0030740  12.0000000  12.0000000  12.0000000  11.0093053  18.9984033  18.9984033  12.0000000
 NucSpn=           0           0           2           0           0           0           3           1           1           0
 AtZEff=  -0.0000000  -0.0000000  -0.0000000  -0.0000000  -0.0000000  -0.0000000  -0.0000000  -0.0000000  -0.0000000  -0.0000000
 NQMom=    0.0000000   0.0000000   2.0440000   0.0000000   0.0000000   0.0000000   4.0590000   0.0000000   0.0000000   0.0000000
 NMagM=    0.0000000   0.0000000   0.4037610   0.0000000   0.0000000   0.0000000   2.6886370   2.6288670   2.6288670   0.0000000
 AtZNuc=   6.0000000   6.0000000   7.0000000   6.0000000   6.0000000   6.0000000   5.0000000   9.0000000   9.0000000   6.0000000

  Atom        21          22          23          24          25          26          27          28          29          30
 IAtWgt=          12          12          12          16           1           1           1           1           1           1
 AtmWgt=  12.0000000  12.0000000  12.0000000  15.9949146   1.0078250   1.0078250   1.0078250   1.0078250   1.0078250   1.0078250
 NucSpn=           0           0           0           0           1           1           1           1           1           1
 AtZEff=  -0.0000000  -0.0000000  -0.0000000  -0.0000000  -0.0000000  -0.0000000  -0.0000000  -0.0000000  -0.0000000  -0.0000000
 NQMom=    0.0000000   0.0000000   0.0000000   0.0000000   0.0000000   0.0000000   0.0000000   0.0000000   0.0000000   0.0000000
 NMagM=    0.0000000   0.0000000   0.0000000   0.0000000   2.7928460   2.7928460   2.7928460   2.7928460   2.7928460   2.7928460
 AtZNuc=   6.0000000   6.0000000   6.0000000   8.0000000   1.0000000   1.0000000   1.0000000   1.0000000   1.0000000   1.0000000

  Atom        31          32          33          34          35          36          37
 IAtWgt=           1           1           1           1           1           1           1
 AtmWgt=   1.0078250   1.0078250   1.0078250   1.0078250   1.0078250   1.0078250   1.0078250
 NucSpn=           1           1           1           1           1           1           1
 AtZEff=  -0.0000000  -0.0000000  -0.0000000  -0.0000000  -0.0000000  -0.0000000  -0.0000000
 NQMom=    0.0000000   0.0000000   0.0000000   0.0000000   0.0000000   0.0000000   0.0000000
 NMagM=    2.7928460   2.7928460   2.7928460   2.7928460   2.7928460   2.7928460   2.7928460
 AtZNuc=   1.0000000   1.0000000   1.0000000   1.0000000   1.0000000   1.0000000   1.0000000
 Leave Link  101 at Sat Nov  8 10:39:44 2025, MaxMem= 30870077440 cpu:               4.1 elap:               0.1
 (Enter /public/software/gauss/g16/l202.exe)
                          Input orientation:                          
 ---------------------------------------------------------------------
 Center     Atomic      Atomic             Coordinates (Angstroms)
 Number     Number       Type             X           Y           Z
 ---------------------------------------------------------------------
      1         16           0       -3.650927   -0.702059   -0.107603
      2          6           0       -5.353992   -0.304621   -0.021612
      3          6           0       -5.552832    1.058396    0.114496
      4          6           0       -4.350217    1.788340    0.150219
      5          6           0       -3.215880    0.990618    0.042303
      6          6           0       -1.861719    1.474115    0.052900
      7          6           0       -0.739029    0.715631   -0.042769
      8          6           0        0.591352    1.261395   -0.035957
      9          7           0        1.699726    0.471029   -0.014638
     10          6           0        2.818397    1.303894   -0.034884
     11          6           0        4.103062    0.781900   -0.050194
     12          6           0        4.329923   -0.596259   -0.054243
     13          7           0        3.255020   -1.483955   -0.009313
     14          6           0        3.753384   -2.736294   -0.070314
     15          6           0        5.156103   -2.694842   -0.157463
     16          6           0        5.523042   -1.350228   -0.144985
     17          5           0        1.770380   -1.076801    0.200778
     18          9           0        1.360356   -1.396394    1.498959
     19          9           0        0.958572   -1.741290   -0.722511
     20          6           0        2.378647    2.667109   -0.074703
     21          6           0        0.997897    2.627388   -0.074337
     22          6           0        3.261566    3.872470   -0.126652
     23          6           0       -6.371369   -1.327536   -0.090908
     24          8           0       -6.145979   -2.533318   -0.214479
     25          1           0       -6.541140    1.498914    0.184713
     26          1           0       -4.290037    2.865660    0.252196
     27          1           0       -1.777137    2.553504    0.153206
     28          1           0       -0.815213   -0.362902   -0.141995
     29          1           0        4.950731    1.458128   -0.079920
     30          1           0        3.099834   -3.597951   -0.047051
     31          1           0        5.807221   -3.554955   -0.225292
     32          1           0        6.519030   -0.932889   -0.205045
     33          1           0        0.330877    3.477197   -0.117102
     34          1           0        3.938986    3.906846    0.733497
     35          1           0        3.885104    3.869659   -1.027580
     36          1           0        2.664807    4.787364   -0.128582
     37          1           0       -7.405874   -0.944302   -0.023215
 ---------------------------------------------------------------------
                    Distance matrix (angstroms):
                    1          2          3          4          5
     1  S    0.000000
     2  C    1.750937   0.000000
     3  C    2.601110   1.384152   0.000000
     4  C    2.599532   2.327569   1.407259   0.000000
     5  C    1.754108   2.500650   2.339049   1.390945   0.000000
     6  C    2.821836   3.919876   3.714961   2.510146   1.437927
     7  C    3.239321   4.726441   4.828553   3.772085   2.493521
     8  C    4.675170   6.148148   6.149377   4.973071   3.817651
     9  N    5.478528   7.096240   7.277450   6.193892   4.943318
    10  C    6.773573   8.329192   8.376160   7.187348   6.042897
    11  C    7.894921   9.519307   9.661256   8.515340   7.322502
    12  C    7.981730   9.688360  10.021736   9.004052   7.711462
    13  N    6.950764   8.689423   9.168268   8.280881   6.928111
    14  C    7.678758   9.426542  10.051840   9.283819   7.903999
    15  C    9.029809  10.779319  11.350861  10.514928   9.149460
    16  C    9.196914  10.927872  11.337715  10.364314   9.048944
    17  B    5.442986   7.169546   7.628627   6.758202   5.400197
    18  F    5.308116   6.970407   7.465581   6.676247   5.362985
    19  F    4.765039   6.511816   7.137031   6.434531   5.047208
    20  C    6.907108   8.284184   8.095191   6.789730   5.841493
    21  C    5.718207   6.996138   6.738653   5.418187   4.522006
    22  C    8.289104   9.575331   9.255851   7.896803   7.091609
    23  C    2.791470   1.444373   2.530784   3.721812   3.917741
    24  O    3.096807   2.373085   3.655196   4.694091   4.590157
    25  H    3.644594   2.169016   1.084315   2.210226   3.366898
    26  H    3.642326   3.355243   2.209030   1.083808   2.171094
    27  H    3.765342   4.581848   4.061123   2.684441   2.127180
    28  H    2.856131   4.540749   4.952869   4.148432   2.762098
    29  H    8.868805  10.454568  10.512964   9.309653   8.180895
    30  H    7.345926   9.072698   9.827324   9.195342   7.807124
    31  H    9.879748  11.626643  12.265776  11.483264  10.106938
    32  H   10.173043  11.891048  12.239166  11.210345   9.926204
    33  H    5.772437   6.828543   6.365710   4.983607   4.334509
    34  H    8.919430  10.230644   9.929322   8.575498   7.757206
    35  H    8.862208  10.188105   9.913737   8.575524   7.736763
    36  H    8.367957   9.499521   9.027396   7.634293   7.001926
    37  H    3.763699   2.149282   2.731946   4.102981   4.615654
                    6          7          8          9         10
     6  C    0.000000
     7  C    1.358265   0.000000
     8  C    2.463880   1.437991   0.000000
     9  N    3.700626   2.451152   1.361479   0.000000
    10  C    4.684033   3.605745   2.227451   1.394811   0.000000
    11  C    6.005697   4.842550   3.544323   2.423619   1.386750
    12  C    6.529499   5.235978   4.174701   2.838769   2.428099
    13  N    5.910589   4.559794   3.825282   2.498185   2.821949
    14  C    7.019409   5.665538   5.097170   3.808875   4.147116
    15  C    8.165432   6.811539   6.041815   4.689316   4.633550
    16  C    7.908904   6.594828   5.581579   4.236946   3.790988
    17  B    4.440854   3.093422   2.629318   1.564345   2.611816
    18  F    4.551118   3.353355   3.164044   2.427636   3.430760
    19  F    4.346738   3.062737   3.101987   2.438186   3.633858
    20  C    4.406838   3.678205   2.274194   2.299415   1.432941
    21  C    3.086038   2.583161   1.425724   2.268482   2.251092
    22  C    5.659717   5.096806   3.735770   3.744555   2.608142
    23  C    5.311014   5.991669   7.428665   8.269415   9.559255
    24  O    5.872469   6.310330   7.734555   8.403638   9.752768
    25  H    4.681343   5.859161   7.139857   8.307115   9.364144
    26  H    2.805859   4.161645   5.146325   6.456216   7.283637
    27  H    1.087334   2.119871   2.704638   4.056285   4.766113
    28  H    2.123156   1.085764   2.151281   2.652655   3.999100
    29  H    6.813763   5.738123   4.364037   3.398185   2.138379
    30  H    7.095974   5.774416   5.468624   4.303249   4.909933
    31  H    9.175052   7.818223   7.101997   5.755383   5.707691
    32  H    8.723368   7.444688   6.323040   5.023239   4.327452
    33  H    2.974679   2.962511   2.232534   3.304738   3.304204
    34  H    6.326893   5.715791   4.335565   4.168792   2.936237
    35  H    6.319181   5.683340   4.316846   4.165647   2.950671
    36  H    5.612485   5.307775   4.091485   4.424377   3.488113
    37  H    6.049148   6.870414   8.295835   9.214944  10.468536
                   11         12         13         14         15
    11  C    0.000000
    12  C    1.396712   0.000000
    13  N    2.419699   1.394790   0.000000
    14  C    3.535586   2.216395   1.349237   0.000000
    15  C    3.634300   2.257715   2.258830   1.406035   0.000000
    16  C    2.563454   1.414297   2.276008   2.249099   1.393839
    17  B    2.993186   2.616719   1.553727   2.599945   3.769551
    18  F    3.829788   3.445429   2.423284   3.159831   4.340207
    19  F    4.087336   3.622663   2.418377   3.037494   4.341406
    20  C    2.555038   3.802298   4.243069   5.575543   6.039175
    21  C    3.612265   4.636238   4.690626   6.030075   6.754533
    22  C    3.203995   4.595233   5.357714   6.627279   6.835189
    23  C   10.684806  10.726312   9.628005  10.222311  11.608470
    24  O   10.773138  10.654689   9.461609   9.902493  11.303380
    25  H   10.670910  11.073701  10.242065  11.134597  12.431016
    26  H    8.653185   9.294219   8.712946   9.807269  10.968891
    27  H    6.144647   6.874607   6.453688   7.656278   8.701234
    28  H    5.050587   5.151173   4.223880   5.148806   6.410522
    29  H    1.084763   2.146292   3.396509   4.361984   4.158768
    30  H    4.493281   3.243968   2.120020   1.081722   2.248564
    31  H    4.662953   3.311427   3.293845   2.216409   1.080902
    32  H    2.966712   2.219966   3.315983   3.304424   2.228074
    33  H    4.636646   5.708709   5.759797   7.093886   7.834443
    34  H    3.225892   4.588172   5.484552   6.694167   6.771814
    35  H    3.246081   4.592349   5.485896   6.676251   6.742790
    36  H    4.256579   5.635737   6.300160   7.602225   7.886114
    37  H   11.637702  11.740998  10.674553  11.302322  12.684072
                   16         17         18         19         20
    16  C    0.000000
    17  B    3.778464   0.000000
    18  F    4.475783   1.398404   0.000000
    19  F    4.617451   1.397512   2.283706   0.000000
    20  C    5.102074   3.802991   4.474973   4.676564   0.000000
    21  C    6.025227   3.793868   4.335604   4.416676   1.381321
    22  C    5.691325   5.179395   5.832507   6.096977   1.495038
    23  C   11.894556   8.150830   7.893794   7.368728   9.618744
    24  O   11.729049   8.059939   7.782900   7.166593   9.986652
    25  H   12.400435   8.701490   8.517258   8.219955   8.999699
    26  H   10.687749   7.230097   7.186547   7.051378   6.679643
    27  H    8.283758   5.076047   5.220786   5.166840   4.163579
    28  H    6.414694   2.704152   2.914436   2.320187   4.402980
    29  H    2.866816   4.076676   4.850974   5.156213   2.842055
    30  H    3.306628   2.860955   3.203558   2.913493   6.306493
    31  H    2.224416   4.755930   5.235173   5.200577   7.105764
    32  H    1.081560   4.768132   5.452558   5.642692   5.488146
    33  H    7.089668   4.786660   5.236733   5.290853   2.202590
    34  H    5.560377   5.461079   5.946395   6.550135   2.150533
    35  H    5.541573   5.518006   6.363102   6.335646   2.150236
    36  H    6.770510   5.941120   6.526051   6.774017   2.140157
    37  H   12.935860   9.179944   8.908883   8.431380  10.429851
                   21         22         23         24         25
    21  C    0.000000
    22  C    2.584021   0.000000
    23  C    8.363479  10.946907   0.000000
    24  O    8.814051  11.381728   1.232875   0.000000
    25  H    7.627427  10.090776   2.844927   4.071167   0.000000
    26  H    5.303362   7.627837   4.693885   5.728112   2.634390
    27  H    2.785327   5.215987   6.019056   6.715484   4.879434
    28  H    3.497682   5.878668   5.639503   5.756129   6.029870
    29  H    4.122147   2.946949  11.659760  11.793503  11.494990
    30  H    6.570672   7.472595   9.739630   9.308412  10.907801
    31  H    7.834140   7.852180  12.381337  11.996785  13.348847
    32  H    6.570812   5.805919  12.896944  12.765732  13.290358
    33  H    1.081166   2.957240   8.246590   8.836596   7.157466
    34  H    3.307509   1.095416  11.592317  12.003370  10.767188
    35  H    3.284490   1.095664  11.536179  11.928197  10.760885
    36  H    2.728924   1.092317  10.910816  11.455554   9.780671
    37  H    9.131427  11.704968   1.105283   2.036882   2.600058
                   26         27         28         29         30
    26  H    0.000000
    27  H    2.534148   0.000000
    28  H    4.759559   3.085104   0.000000
    29  H    9.353248   6.820440   6.046992   0.000000
    30  H    9.822322   7.852729   5.079582   5.384314   0.000000
    31  H   11.975262   9.745718   7.352059   5.087800   2.713589
    32  H   11.466210   9.006091   7.356628   2.862199   4.338020
    33  H    4.675811   2.317326   4.007556   5.041931   7.598010
    34  H    8.308582   5.902740   6.449778   2.771551   7.591799
    35  H    8.335393   5.931905   6.386847   2.801625   7.572535
    36  H    7.225496   4.980000   6.215783   4.038766   8.396988
    37  H    4.929513   6.629363   6.617322  12.588112  10.835697
                   31         32         33         34         35
    31  H    0.000000
    32  H    2.717041   0.000000
    33  H    8.913653   7.599331   0.000000
    34  H    7.751648   5.564218   3.731832   0.000000
    35  H    7.711232   5.538826   3.689922   1.762293   0.000000
    36  H    8.915066   6.897983   2.676546   1.772576   1.771865
    37  H   13.470049  13.926096   8.911553  12.361719  12.315403
                   36         37
    36  H    0.000000
    37  H   11.587999   0.000000
 Stoichiometry    C17H13BF2N2OS
 Framework group  C1[X(C17H13BF2N2OS)]
 Deg. of freedom   105
 Full point group                 C1      NOp   1
 Largest Abelian subgroup         C1      NOp   1
 Largest concise Abelian subgroup C1      NOp   1
                         Standard orientation:                         
 ---------------------------------------------------------------------
 Center     Atomic      Atomic             Coordinates (Angstroms)
 Number     Number       Type             X           Y           Z
 ---------------------------------------------------------------------
      1         16           0       -3.650927   -0.702059   -0.107603
      2          6           0       -5.353992   -0.304621   -0.021612
      3          6           0       -5.552832    1.058396    0.114496
      4          6           0       -4.350217    1.788340    0.150219
      5          6           0       -3.215880    0.990618    0.042303
      6          6           0       -1.861719    1.474115    0.052900
      7          6           0       -0.739029    0.715631   -0.042769
      8          6           0        0.591352    1.261395   -0.035957
      9          7           0        1.699726    0.471029   -0.014638
     10          6           0        2.818397    1.303894   -0.034884
     11          6           0        4.103062    0.781900   -0.050194
     12          6           0        4.329923   -0.596259   -0.054243
     13          7           0        3.255020   -1.483955   -0.009313
     14          6           0        3.753384   -2.736294   -0.070314
     15          6           0        5.156103   -2.694842   -0.157463
     16          6           0        5.523042   -1.350228   -0.144985
     17          5           0        1.770380   -1.076801    0.200778
     18          9           0        1.360356   -1.396394    1.498959
     19          9           0        0.958572   -1.741290   -0.722511
     20          6           0        2.378647    2.667109   -0.074703
     21          6           0        0.997897    2.627388   -0.074337
     22          6           0        3.261566    3.872470   -0.126652
     23          6           0       -6.371369   -1.327536   -0.090908
     24          8           0       -6.145979   -2.533318   -0.214479
     25          1           0       -6.541140    1.498914    0.184713
     26          1           0       -4.290037    2.865660    0.252196
     27          1           0       -1.777137    2.553504    0.153206
     28          1           0       -0.815213   -0.362902   -0.141995
     29          1           0        4.950731    1.458128   -0.079920
     30          1           0        3.099834   -3.597951   -0.047051
     31          1           0        5.807221   -3.554955   -0.225292
     32          1           0        6.519030   -0.932889   -0.205045
     33          1           0        0.330877    3.477197   -0.117102
     34          1           0        3.938986    3.906846    0.733497
     35          1           0        3.885104    3.869659   -1.027580
     36          1           0        2.664807    4.787364   -0.128582
     37          1           0       -7.405874   -0.944302   -0.023215
 ---------------------------------------------------------------------
 Rotational constants (GHZ):           0.4412772           0.1047945           0.0863523
 Leave Link  202 at Sat Nov  8 10:39:44 2025, MaxMem= 30870077440 cpu:               0.2 elap:               0.0
 (Enter /public/software/gauss/g16/l301.exe)
 Standard basis: def2TZVPP (5D, 7F)
 Ernie: Thresh=  0.10000D-02 Tol=  0.10000D-05 Strict=F.
 There are  1071 symmetry adapted cartesian basis functions of A   symmetry.
 There are   937 symmetry adapted basis functions of A   symmetry.
   937 basis functions,  1463 primitive gaussians,  1071 cartesian basis functions
    88 alpha electrons       88 beta electrons
       nuclear repulsion energy      2016.8348969957 Hartrees.
 IExCor= 4336 DFT=T Ex+Corr=M062X ExCW=0 ScaHFX=  0.540000
 ScaDFX=  1.000000  1.000000  1.000000  1.000000 ScalE2=  1.000000  1.000000
 IRadAn=      5 IRanWt=     -1 IRanGd=            0 ICorTp=0 IEmpDi=131
 NAtoms=   37 NActive=   37 NUniq=   37 SFac= 1.00D+00 NAtFMM=   60 NAOKFM=F Big=F
 Integral buffers will be    131072 words long.
 Raffenetti 2 integral format.
 Two-electron integral symmetry is turned on.
 R6Disp:  Grimme-D3 Dispersion energy=       -0.0020454415 Hartrees.
 Nuclear repulsion after empirical dispersion term =     2016.8328515542 Hartrees.
 ------------------------------------------------------------------------------
 Polarizable Continuum Model (PCM)
 =================================
 Model                : PCM.
 Atomic radii         : UFF (Universal Force Field).
 Polarization charges : Total charges.
 Charge compensation  : None.
 Solution method      : On-the-fly selection.
 Cavity type          : Scaled VdW (van der Waals Surface) (Alpha=1.100).
 Cavity algorithm     : GePol (No added spheres)
                        Default sphere list used, NSphG=   37.
                        Lebedev-Laikov grids with approx.  5.0 points / Ang**2.
                        Smoothing algorithm: York/Karplus (Gamma=1.0000).
                        Polarization charges: spherical gaussians, with
                                              point-specific exponents (IZeta= 3).
                        Self-potential: point-specific (ISelfS= 7).
                        Self-field    : sphere-specific E.n sum rule (ISelfD= 2).
 Solvent              : Water, Eps=  78.355300 Eps(inf)=   1.777849
 ------------------------------------------------------------------------------
 GePol: Number of generator spheres                  =      37
 GePol: Total number of spheres                      =      37
 GePol: Number of exposed spheres                    =      37 (100.00%)
 GePol: Number of points                             =    3147
 GePol: Average weight of points                     =       0.13
 GePol: Minimum weight of points                     =   0.25D-10
 GePol: Maximum weight of points                     =    0.20577
 GePol: Number of points with low weight             =     204
 GePol: Fraction of low-weight points (<1% of avg)   =       6.48%
 GePol: Cavity surface area                          =    397.594 Ang**2
 GePol: Cavity volume                                =    432.464 Ang**3
 Leave Link  301 at Sat Nov  8 10:39:44 2025, MaxMem= 30870077440 cpu:               3.9 elap:               0.1
 (Enter /public/software/gauss/g16/l302.exe)
 NPDir=0 NMtPBC=     1 NCelOv=     1 NCel=       1 NClECP=     1 NCelD=      1
         NCelK=      1 NCelE2=     1 NClLst=     1 CellRange=     0.0.
 One-electron integrals computed using PRISM.
 One-electron integral symmetry used in STVInt
   1 Symmetry operations used in ECPInt.
 ECPInt:  NShTT=   59685 NPrTT=  175516 LenC2=   46358 LenP2D=   96636.
 LDataN:  DoStor=T MaxTD1= 6 Len=  172
 NBasis=   937 RedAO= T EigKep=  8.09D-06  NBF=   937
 NBsUse=   937 1.00D-06 EigRej= -1.00D+00 NBFU=   937
 Precomputing XC quadrature grid using
 IXCGrd= 4 IRadAn=           5 IRanWt=          -1 IRanGd=           0 AccXCQ= 0.00D+00.
 Generated NRdTot=       0 NPtTot=           0 NUsed=           0 NTot=          32
 NSgBfM=  1039  1039  1039  1039  1039 MxSgAt=    37 MxSgA2=    37.
 Leave Link  302 at Sat Nov  8 10:39:46 2025, MaxMem= 30870077440 cpu:             129.5 elap:               2.0
 (Enter /public/software/gauss/g16/l303.exe)
 DipDrv:  MaxL=1.
 Leave Link  303 at Sat Nov  8 10:39:46 2025, MaxMem= 30870077440 cpu:               9.7 elap:               0.2
 (Enter /public/software/gauss/g16/l401.exe)
 ExpMin= 6.06D-02 ExpMax= 6.07D+04 ExpMxC= 2.07D+03 IAcc=3 IRadAn=         5 AccDes= 0.00D+00
 Harris functional with IExCor= 1009 and IRadAn=       5 diagonalized for initial guess.
 HarFok:  IExCor= 1009 AccDes= 0.00D+00 IRadAn=         5 IDoV= 1 UseB2=F ITyADJ=14
 ICtDFT=  3500011 ScaDFX=  1.000000  1.000000  1.000000  1.000000
 FoFCou: FMM=F IPFlag=           0 FMFlag=      100000 FMFlg1=           0
         NFxFlg=           0 DoJE=T BraDBF=F KetDBF=T FulRan=T
         wScrn=  0.000000 ICntrl=       500 IOpCl=  0 I1Cent=   200000004 NGrid=           0
         NMat0=    1 NMatS0=      1 NMatT0=    0 NMatD0=    1 NMtDS0=    0 NMtDT0=    0
 Petite list used in FoFCou.
 Harris En= -1462.50516697665    
 JPrj=0 DoOrth=F DoCkMO=F.
 Leave Link  401 at Sat Nov  8 10:39:49 2025, MaxMem= 30870077440 cpu:             200.2 elap:               3.2
 (Enter /public/software/gauss/g16/l502.exe)
 Integral symmetry usage will be decided dynamically.
 Closed shell SCF:
 Using DIIS extrapolation, IDIIS=  1040.
 NGot= 30870077440 LenX= 30867705787 LenY= 30866557675
 Requested convergence on RMS density matrix=1.00D-08 within 128 cycles.
 Requested convergence on MAX density matrix=1.00D-06.
 Requested convergence on             energy=1.00D-06.
 No special actions if energy rises.
 Fock matrices will be formed incrementally for  20 cycles.

 Cycle   1  Pass 1  IDiag  1:
 FoFJK:  IHMeth= 1 ICntrl=       0 DoSepK=F KAlg= 0 I1Cent=           0 FoldK=F
 IRaf= 700000000 NMat=       1 IRICut=       1 DoRegI=T DoRafI=F ISym2E= 0 IDoP0=0 IntGTp=1.
 FoFCou: FMM=F IPFlag=           0 FMFlag=      100000 FMFlg1=           0
         NFxFlg=           0 DoJE=F BraDBF=F KetDBF=F FulRan=T
         wScrn=  0.000000 ICntrl=         0 IOpCl=  0 I1Cent=           0 NGrid=           0
         NMat0=    1 NMatS0=      1 NMatT0=    0 NMatD0=    1 NMtDS0=    0 NMtDT0=    0
 Symmetry not used in FoFCou.
 Inv3:  Mode=1 IEnd=    29710827.
 Iteration    1 A*A^-1 deviation from unit magnitude is 5.66D-15 for   3136.
 Iteration    1 A*A^-1 deviation from orthogonality  is 3.69D-15 for   1913    262.
 Iteration    1 A^-1*A deviation from unit magnitude is 5.44D-15 for   3136.
 Iteration    1 A^-1*A deviation from orthogonality  is 4.00D-15 for   3139   1491.
 E= -1462.68557511696    
 DIIS: error= 1.93D-02 at cycle   1 NSaved=   1.
 NSaved= 1 IEnMin= 1 EnMin= -1462.68557511696     IErMin= 1 ErrMin= 1.93D-02
 ErrMax= 1.93D-02  0.00D+00 EMaxC= 1.00D-01 BMatC= 7.63D-01 BMatP= 7.63D-01
 IDIUse=3 WtCom= 8.07D-01 WtEn= 1.93D-01
 Coeff-Com:  0.100D+01
 Coeff-En:   0.100D+01
 Coeff:      0.100D+01
 Gap=     0.174 Goal=   None    Shift=    0.000
 GapD=    0.174 DampG=1.000 DampE=0.500 DampFc=0.5000 IDamp=-1.
 Damping current iteration by 5.00D-01
 RMSDP=1.92D-03 MaxDP=2.64D-01              OVMax= 2.73D-01

 Cycle   2  Pass 1  IDiag  1:
 RMSU=  9.57D-04    CP:  9.86D-01
 E= -1462.97267731186     Delta-E=       -0.287102194899 Rises=F Damp=T
 DIIS: error= 5.71D-03 at cycle   2 NSaved=   2.
 NSaved= 2 IEnMin= 2 EnMin= -1462.97267731186     IErMin= 2 ErrMin= 5.71D-03
 ErrMax= 5.71D-03  0.00D+00 EMaxC= 1.00D-01 BMatC= 6.82D-02 BMatP= 7.63D-01
 IDIUse=3 WtCom= 9.43D-01 WtEn= 5.71D-02
 Coeff-Com: -0.749D-01 0.107D+01
 Coeff-En:   0.000D+00 0.100D+01
 Coeff:     -0.706D-01 0.107D+01
 Gap=     0.145 Goal=   None    Shift=    0.000
 RMSDP=7.17D-04 MaxDP=7.38D-02 DE=-2.87D-01 OVMax= 2.09D-01

 Cycle   3  Pass 1  IDiag  1:
 RMSU=  7.11D-04    CP:  9.73D-01  1.06D+00
 E= -1463.24938494074     Delta-E=       -0.276707628877 Rises=F Damp=F
 DIIS: error= 3.38D-03 at cycle   3 NSaved=   3.
 NSaved= 3 IEnMin= 3 EnMin= -1463.24938494074     IErMin= 3 ErrMin= 3.38D-03
 ErrMax= 3.38D-03  0.00D+00 EMaxC= 1.00D-01 BMatC= 2.63D-02 BMatP= 6.82D-02
 IDIUse=3 WtCom= 9.66D-01 WtEn= 3.38D-02
 Coeff-Com: -0.998D-01 0.416D+00 0.684D+00
 Coeff-En:   0.000D+00 0.000D+00 0.100D+01
 Coeff:     -0.965D-01 0.402D+00 0.694D+00
 Gap=     0.147 Goal=   None    Shift=    0.000
 RMSDP=2.05D-04 MaxDP=2.22D-02 DE=-2.77D-01 OVMax= 5.30D-02

 Cycle   4  Pass 1  IDiag  1:
 RMSU=  1.76D-04    CP:  9.74D-01  1.15D+00  9.15D-01
 E= -1463.26786054725     Delta-E=       -0.018475606510 Rises=F Damp=F
 DIIS: error= 2.29D-03 at cycle   4 NSaved=   4.
 NSaved= 4 IEnMin= 4 EnMin= -1463.26786054725     IErMin= 4 ErrMin= 2.29D-03
 ErrMax= 2.29D-03  0.00D+00 EMaxC= 1.00D-01 BMatC= 5.74D-03 BMatP= 2.63D-02
 IDIUse=3 WtCom= 9.77D-01 WtEn= 2.29D-02
 Coeff-Com: -0.362D-01 0.904D-01 0.363D+00 0.583D+00
 Coeff-En:   0.000D+00 0.000D+00 0.134D+00 0.866D+00
 Coeff:     -0.354D-01 0.884D-01 0.358D+00 0.589D+00
 Gap=     0.147 Goal=   None    Shift=    0.000
 RMSDP=8.18D-05 MaxDP=9.55D-03 DE=-1.85D-02 OVMax= 1.58D-02

 Cycle   5  Pass 1  IDiag  1:
 RMSU=  6.01D-05    CP:  9.73D-01  1.13D+00  9.57D-01  7.53D-01
 E= -1463.27260661072     Delta-E=       -0.004746063473 Rises=F Damp=F
 DIIS: error= 4.34D-04 at cycle   5 NSaved=   5.
 NSaved= 5 IEnMin= 5 EnMin= -1463.27260661072     IErMin= 5 ErrMin= 4.34D-04
 ErrMax= 4.34D-04  0.00D+00 EMaxC= 1.00D-01 BMatC= 2.97D-04 BMatP= 5.74D-03
 IDIUse=3 WtCom= 9.96D-01 WtEn= 4.34D-03
 Coeff-Com: -0.994D-02 0.172D-01 0.134D+00 0.281D+00 0.578D+00
 Coeff-En:   0.000D+00 0.000D+00 0.000D+00 0.000D+00 0.100D+01
 Coeff:     -0.990D-02 0.171D-01 0.133D+00 0.280D+00 0.580D+00
 Gap=     0.148 Goal=   None    Shift=    0.000
 RMSDP=2.56D-05 MaxDP=3.63D-03 DE=-4.75D-03 OVMax= 5.63D-03

 Cycle   6  Pass 1  IDiag  1:
 RMSU=  2.49D-05    CP:  9.73D-01  1.13D+00  9.64D-01  7.59D-01  9.77D-01
 E= -1463.27290780378     Delta-E=       -0.000301193056 Rises=F Damp=F
 DIIS: error= 2.70D-04 at cycle   6 NSaved=   6.
 NSaved= 6 IEnMin= 6 EnMin= -1463.27290780378     IErMin= 6 ErrMin= 2.70D-04
 ErrMax= 2.70D-04  0.00D+00 EMaxC= 1.00D-01 BMatC= 2.50D-05 BMatP= 2.97D-04
 IDIUse=3 WtCom= 9.97D-01 WtEn= 2.70D-03
 Coeff-Com:  0.244D-02-0.845D-02-0.915D-03 0.184D-01 0.188D+00 0.800D+00
 Coeff-En:   0.000D+00 0.000D+00 0.000D+00 0.000D+00 0.000D+00 0.100D+01
 Coeff:      0.244D-02-0.843D-02-0.913D-03 0.184D-01 0.188D+00 0.801D+00
 Gap=     0.148 Goal=   None    Shift=    0.000
 RMSDP=1.56D-05 MaxDP=1.97D-03 DE=-3.01D-04 OVMax= 5.64D-03

 Cycle   7  Pass 1  IDiag  1:
 RMSU=  9.16D-06    CP:  9.73D-01  1.13D+00  9.72D-01  7.66D-01  1.11D+00
                    CP:  1.26D+00
 E= -1463.27296125849     Delta-E=       -0.000053454716 Rises=F Damp=F
 DIIS: error= 1.19D-04 at cycle   7 NSaved=   7.
 NSaved= 7 IEnMin= 7 EnMin= -1463.27296125849     IErMin= 7 ErrMin= 1.19D-04
 ErrMax= 1.19D-04  0.00D+00 EMaxC= 1.00D-01 BMatC= 5.79D-06 BMatP= 2.50D-05
 IDIUse=3 WtCom= 9.99D-01 WtEn= 1.19D-03
 Coeff-Com:  0.297D-02-0.677D-02-0.236D-01-0.450D-01-0.535D-01 0.306D+00
 Coeff-Com:  0.820D+00
 Coeff-En:   0.000D+00 0.000D+00 0.000D+00 0.000D+00 0.000D+00 0.000D+00
 Coeff-En:   0.100D+01
 Coeff:      0.296D-02-0.676D-02-0.236D-01-0.450D-01-0.534D-01 0.306D+00
 Coeff:      0.820D+00
 Gap=     0.148 Goal=   None    Shift=    0.000
 RMSDP=8.34D-06 MaxDP=1.40D-03 DE=-5.35D-05 OVMax= 2.60D-03

 Cycle   8  Pass 1  IDiag  1:
 RMSU=  3.32D-06    CP:  9.73D-01  1.12D+00  9.76D-01  7.70D-01  1.17D+00
                    CP:  1.49D+00  1.20D+00
 E= -1463.27297552189     Delta-E=       -0.000014263398 Rises=F Damp=F
 DIIS: error= 3.94D-05 at cycle   8 NSaved=   8.
 NSaved= 8 IEnMin= 8 EnMin= -1463.27297552189     IErMin= 8 ErrMin= 3.94D-05
 ErrMax= 3.94D-05  0.00D+00 EMaxC= 1.00D-01 BMatC= 9.80D-07 BMatP= 5.79D-06
 IDIUse=1 WtCom= 1.00D+00 WtEn= 0.00D+00
 Coeff-Com:  0.905D-03-0.164D-02-0.899D-02-0.209D-01-0.521D-01 0.488D-02
 Coeff-Com:  0.335D+00 0.742D+00
 Coeff:      0.905D-03-0.164D-02-0.899D-02-0.209D-01-0.521D-01 0.488D-02
 Coeff:      0.335D+00 0.742D+00
 Gap=     0.148 Goal=   None    Shift=    0.000
 RMSDP=3.15D-06 MaxDP=4.08D-04 DE=-1.43D-05 OVMax= 1.06D-03

 Cycle   9  Pass 1  IDiag  1:
 RMSU=  1.37D-06    CP:  9.73D-01  1.12D+00  9.77D-01  7.71D-01  1.20D+00
                    CP:  1.56D+00  1.34D+00  1.14D+00
 E= -1463.27297750139     Delta-E=       -0.000001979500 Rises=F Damp=F
 DIIS: error= 1.03D-05 at cycle   9 NSaved=   9.
 NSaved= 9 IEnMin= 9 EnMin= -1463.27297750139     IErMin= 9 ErrMin= 1.03D-05
 ErrMax= 1.03D-05  0.00D+00 EMaxC= 1.00D-01 BMatC= 1.54D-07 BMatP= 9.80D-07
 IDIUse=1 WtCom= 1.00D+00 WtEn= 0.00D+00
 Coeff-Com: -0.380D-04 0.253D-03-0.162D-03-0.196D-02-0.143D-01-0.411D-01
 Coeff-Com:  0.188D-01 0.303D+00 0.735D+00
 Coeff:     -0.380D-04 0.253D-03-0.162D-03-0.196D-02-0.143D-01-0.411D-01
 Coeff:      0.188D-01 0.303D+00 0.735D+00
 Gap=     0.149 Goal=   None    Shift=    0.000
 RMSDP=1.07D-06 MaxDP=1.18D-04 DE=-1.98D-06 OVMax= 3.43D-04

 Cycle  10  Pass 1  IDiag  1:
 RMSU=  5.36D-07    CP:  9.73D-01  1.12D+00  9.77D-01  7.70D-01  1.20D+00
                    CP:  1.58D+00  1.39D+00  1.27D+00  1.12D+00
 E= -1463.27297779374     Delta-E=       -0.000000292350 Rises=F Damp=F
 DIIS: error= 4.79D-06 at cycle  10 NSaved=  10.
 NSaved=10 IEnMin=10 EnMin= -1463.27297779374     IErMin=10 ErrMin= 4.79D-06
 ErrMax= 4.79D-06  0.00D+00 EMaxC= 1.00D-01 BMatC= 2.95D-08 BMatP= 1.54D-07
 IDIUse=1 WtCom= 1.00D+00 WtEn= 0.00D+00
 Coeff-Com: -0.171D-03 0.409D-03 0.156D-02 0.287D-02 0.160D-02-0.202D-01
 Coeff-Com: -0.496D-01 0.560D-02 0.319D+00 0.739D+00
 Coeff:     -0.171D-03 0.409D-03 0.156D-02 0.287D-02 0.160D-02-0.202D-01
 Coeff:     -0.496D-01 0.560D-02 0.319D+00 0.739D+00
 Gap=     0.149 Goal=   None    Shift=    0.000
 RMSDP=4.59D-07 MaxDP=4.82D-05 DE=-2.92D-07 OVMax= 1.86D-04

 Cycle  11  Pass 1  IDiag  1:
 RMSU=  2.17D-07    CP:  9.73D-01  1.12D+00  9.77D-01  7.70D-01  1.20D+00
                    CP:  1.59D+00  1.40D+00  1.32D+00  1.26D+00  1.13D+00
 E= -1463.27297785090     Delta-E=       -0.000000057160 Rises=F Damp=F
 DIIS: error= 2.50D-06 at cycle  11 NSaved=  11.
 NSaved=11 IEnMin=11 EnMin= -1463.27297785090     IErMin=11 ErrMin= 2.50D-06
 ErrMax= 2.50D-06  0.00D+00 EMaxC= 1.00D-01 BMatC= 4.27D-09 BMatP= 2.95D-08
 IDIUse=1 WtCom= 1.00D+00 WtEn= 0.00D+00
 Coeff-Com: -0.531D-04 0.103D-03 0.605D-03 0.141D-02 0.235D-02-0.150D-02
 Coeff-Com: -0.207D-01-0.374D-01 0.154D-01 0.299D+00 0.741D+00
 Coeff:     -0.531D-04 0.103D-03 0.605D-03 0.141D-02 0.235D-02-0.150D-02
 Coeff:     -0.207D-01-0.374D-01 0.154D-01 0.299D+00 0.741D+00
 Gap=     0.149 Goal=   None    Shift=    0.000
 RMSDP=1.69D-07 MaxDP=9.01D-06 DE=-5.72D-08 OVMax= 1.07D-04

 Cycle  12  Pass 1  IDiag  1:
 RMSU=  1.08D-07    CP:  9.73D-01  1.12D+00  9.77D-01  7.70D-01  1.20D+00
                    CP:  1.59D+00  1.41D+00  1.33D+00  1.31D+00  1.26D+00
                    CP:  1.20D+00
 E= -1463.27297786137     Delta-E=       -0.000000010469 Rises=F Damp=F
 DIIS: error= 1.05D-06 at cycle  12 NSaved=  12.
 NSaved=12 IEnMin=12 EnMin= -1463.27297786137     IErMin=12 ErrMin= 1.05D-06
 ErrMax= 1.05D-06  0.00D+00 EMaxC= 1.00D-01 BMatC= 8.34D-10 BMatP= 4.27D-09
 IDIUse=1 WtCom= 1.00D+00 WtEn= 0.00D+00
 Coeff-Com:  0.148D-04-0.418D-04-0.976D-04-0.549D-04 0.461D-03 0.314D-02
 Coeff-Com:  0.144D-02-0.127D-01-0.608D-01-0.382D-01 0.245D+00 0.862D+00
 Coeff:      0.148D-04-0.418D-04-0.976D-04-0.549D-04 0.461D-03 0.314D-02
 Coeff:      0.144D-02-0.127D-01-0.608D-01-0.382D-01 0.245D+00 0.862D+00
 Gap=     0.149 Goal=   None    Shift=    0.000
 RMSDP=1.00D-07 MaxDP=7.86D-06 DE=-1.05D-08 OVMax= 6.13D-05

 Cycle  13  Pass 1  IDiag  1:
 RMSU=  4.53D-08    CP:  9.73D-01  1.12D+00  9.77D-01  7.70D-01  1.20D+00
                    CP:  1.59D+00  1.41D+00  1.34D+00  1.33D+00  1.34D+00
                    CP:  1.44D+00  1.31D+00
 E= -1463.27297786449     Delta-E=       -0.000000003123 Rises=F Damp=F
 DIIS: error= 5.08D-07 at cycle  13 NSaved=  13.
 NSaved=13 IEnMin=13 EnMin= -1463.27297786449     IErMin=13 ErrMin= 5.08D-07
 ErrMax= 5.08D-07  0.00D+00 EMaxC= 1.00D-01 BMatC= 1.82D-10 BMatP= 8.34D-10
 IDIUse=1 WtCom= 1.00D+00 WtEn= 0.00D+00
 Coeff-Com:  0.195D-04-0.424D-04-0.202D-03-0.393D-03-0.404D-03 0.170D-02
 Coeff-Com:  0.615D-02 0.592D-02-0.300D-01-0.890D-01-0.805D-01 0.317D+00
 Coeff-Com:  0.870D+00
 Coeff:      0.195D-04-0.424D-04-0.202D-03-0.393D-03-0.404D-03 0.170D-02
 Coeff:      0.615D-02 0.592D-02-0.300D-01-0.890D-01-0.805D-01 0.317D+00
 Coeff:      0.870D+00
 Gap=     0.149 Goal=   None    Shift=    0.000
 RMSDP=6.51D-08 MaxDP=5.39D-06 DE=-3.12D-09 OVMax= 4.00D-05

 Cycle  14  Pass 1  IDiag  1:
 RMSU=  2.46D-08    CP:  9.73D-01  1.12D+00  9.77D-01  7.70D-01  1.20D+00
                    CP:  1.60D+00  1.41D+00  1.34D+00  1.34D+00  1.38D+00
                    CP:  1.57D+00  1.64D+00  1.32D+00
 E= -1463.27297786540     Delta-E=       -0.000000000903 Rises=F Damp=F
 DIIS: error= 2.29D-07 at cycle  14 NSaved=  14.
 NSaved=14 IEnMin=14 EnMin= -1463.27297786540     IErMin=14 ErrMin= 2.29D-07
 ErrMax= 2.29D-07  0.00D+00 EMaxC= 1.00D-01 BMatC= 4.40D-11 BMatP= 1.82D-10
 IDIUse=1 WtCom= 1.00D+00 WtEn= 0.00D+00
 Coeff-Com:  0.279D-05-0.462D-05-0.463D-04-0.114D-03-0.208D-03-0.814D-04
 Coeff-Com:  0.190D-02 0.492D-02 0.181D-02-0.239D-01-0.832D-01-0.926D-01
 Coeff-Com:  0.352D+00 0.839D+00
 Coeff:      0.279D-05-0.462D-05-0.463D-04-0.114D-03-0.208D-03-0.814D-04
 Coeff:      0.190D-02 0.492D-02 0.181D-02-0.239D-01-0.832D-01-0.926D-01
 Coeff:      0.352D+00 0.839D+00
 Gap=     0.149 Goal=   None    Shift=    0.000
 RMSDP=2.58D-08 MaxDP=1.77D-06 DE=-9.03D-10 OVMax= 1.71D-05

 Cycle  15  Pass 1  IDiag  1:
 RMSU=  9.38D-09    CP:  9.73D-01  1.12D+00  9.77D-01  7.70D-01  1.20D+00
                    CP:  1.60D+00  1.41D+00  1.34D+00  1.34D+00  1.40D+00
                    CP:  1.63D+00  1.76D+00  1.59D+00  1.10D+00
 E= -1463.27297786540     Delta-E=       -0.000000000005 Rises=F Damp=F
 DIIS: error= 7.04D-08 at cycle  15 NSaved=  15.
 NSaved=15 IEnMin=15 EnMin= -1463.27297786540     IErMin=15 ErrMin= 7.04D-08
 ErrMax= 7.04D-08  0.00D+00 EMaxC= 1.00D-01 BMatC= 6.58D-12 BMatP= 4.40D-11
 IDIUse=1 WtCom= 1.00D+00 WtEn= 0.00D+00
 Coeff-Com: -0.176D-05 0.433D-05 0.110D-04 0.127D-04-0.278D-04-0.311D-03
 Coeff-Com: -0.161D-03 0.863D-03 0.506D-02 0.481D-02-0.188D-01-0.925D-01
 Coeff-Com: -0.792D-02 0.346D+00 0.763D+00
 Coeff:     -0.176D-05 0.433D-05 0.110D-04 0.127D-04-0.278D-04-0.311D-03
 Coeff:     -0.161D-03 0.863D-03 0.506D-02 0.481D-02-0.188D-01-0.925D-01
 Coeff:     -0.792D-02 0.346D+00 0.763D+00
 Gap=     0.149 Goal=   None    Shift=    0.000
 RMSDP=8.93D-09 MaxDP=5.99D-07 DE=-5.46D-12 OVMax= 5.42D-06

 Error on total polarization charges =  0.01910
 SCF Done:  E(RM062X) =  -1463.27297787     A.U. after   15 cycles
            NFock= 15  Conv=0.89D-08     -V/T= 2.0042
 KE= 1.457213938794D+03 PE=-7.469282911426D+03 EE= 2.531963143212D+03
 Leave Link  502 at Sat Nov  8 10:44:31 2025, MaxMem= 30870077440 cpu:           17661.2 elap:             281.5
 (Enter /public/software/gauss/g16/l601.exe)
 Copying SCF densities to generalized density rwf, IOpCl= 0 IROHF=0.

 **********************************************************************

            Population analysis using the SCF density.

 **********************************************************************

 Orbital symmetries:
       Occupied  (A) (A) (A) (A) (A) (A) (A) (A) (A) (A) (A) (A)
                 (A) (A) (A) (A) (A) (A) (A) (A) (A) (A) (A) (A)
                 (A) (A) (A) (A) (A) (A) (A) (A) (A) (A) (A) (A)
                 (A) (A) (A) (A) (A) (A) (A) (A) (A) (A) (A) (A)
                 (A) (A) (A) (A) (A) (A) (A) (A) (A) (A) (A) (A)
                 (A) (A) (A) (A) (A) (A) (A) (A) (A) (A) (A) (A)
                 (A) (A) (A) (A) (A) (A) (A) (A) (A) (A) (A) (A)
                 (A) (A) (A) (A)
       Virtual   (A) (A) (A) (A) (A) (A) (A) (A) (A) (A) (A) (A)
                 (A) (A) (A) (A) (A) (A) (A) (A) (A) (A) (A) (A)
                 (A) (A) (A) (A) (A) (A) (A) (A) (A) (A) (A) (A)
                 (A) (A) (A) (A) (A) (A) (A) (A) (A) (A) (A) (A)
                 (A) (A) (A) (A) (A) (A) (A) (A) (A) (A) (A) (A)
                 (A) (A) (A) (A) (A) (A) (A) (A) (A) (A) (A) (A)
                 (A) (A) (A) (A) (A) (A) (A) (A) (A) (A) (A) (A)
                 (A) (A) (A) (A) (A) (A) (A) (A) (A) (A) (A) (A)
                 (A) (A) (A) (A) (A) (A) (A) (A) (A) (A) (A) (A)
                 (A) (A) (A) (A) (A) (A) (A) (A) (A) (A) (A) (A)
                 (A) (A) (A) (A) (A) (A) (A) (A) (A) (A) (A) (A)
                 (A) (A) (A) (A) (A) (A) (A) (A) (A) (A) (A) (A)
                 (A) (A) (A) (A) (A) (A) (A) (A) (A) (A) (A) (A)
                 (A) (A) (A) (A) (A) (A) (A) (A) (A) (A) (A) (A)
                 (A) (A) (A) (A) (A) (A) (A) (A) (A) (A) (A) (A)
                 (A) (A) (A) (A) (A) (A) (A) (A) (A) (A) (A) (A)
                 (A) (A) (A) (A) (A) (A) (A) (A) (A) (A) (A) (A)
                 (A) (A) (A) (A) (A) (A) (A) (A) (A) (A) (A) (A)
                 (A) (A) (A) (A) (A) (A) (A) (A) (A) (A) (A) (A)
                 (A) (A) (A) (A) (A) (A) (A) (A) (A) (A) (A) (A)
                 (A) (A) (A) (A) (A) (A) (A) (A) (A) (A) (A) (A)
                 (A) (A) (A) (A) (A) (A) (A) (A) (A) (A) (A) (A)
                 (A) (A) (A) (A) (A) (A) (A) (A) (A) (A) (A) (A)
                 (A) (A) (A) (A) (A) (A) (A) (A) (A) (A) (A) (A)
                 (A) (A) (A) (A) (A) (A) (A) (A) (A) (A) (A) (A)
                 (A) (A) (A) (A) (A) (A) (A) (A) (A) (A) (A) (A)
                 (A) (A) (A) (A) (A) (A) (A) (A) (A) (A) (A) (A)
                 (A) (A) (A) (A) (A) (A) (A) (A) (A) (A) (A) (A)
                 (A) (A) (A) (A) (A) (A) (A) (A) (A) (A) (A) (A)
                 (A) (A) (A) (A) (A) (A) (A) (A) (A) (A) (A) (A)
                 (A) (A) (A) (A) (A) (A) (A) (A) (A) (A) (A) (A)
                 (A) (A) (A) (A) (A) (A) (A) (A) (A) (A) (A) (A)
                 (A) (A) (A) (A) (A) (A) (A) (A) (A) (A) (A) (A)
                 (A) (A) (A) (A) (A) (A) (A) (A) (A) (A) (A) (A)
                 (A) (A) (A) (A) (A) (A) (A) (A) (A) (A) (A) (A)
                 (A) (A) (A) (A) (A) (A) (A) (A) (A) (A) (A) (A)
                 (A) (A) (A) (A) (A) (A) (A) (A) (A) (A) (A) (A)
                 (A) (A) (A) (A) (A) (A) (A) (A) (A) (A) (A) (A)
                 (A) (A) (A) (A) (A) (A) (A) (A) (A) (A) (A) (A)
                 (A) (A) (A) (A) (A) (A) (A) (A) (A) (A) (A) (A)
                 (A) (A) (A) (A) (A) (A) (A) (A) (A) (A) (A) (A)
                 (A) (A) (A) (A) (A) (A) (A) (A) (A) (A) (A) (A)
                 (A) (A) (A) (A) (A) (A) (A) (A) (A) (A) (A) (A)
                 (A) (A) (A) (A) (A) (A) (A) (A) (A) (A) (A) (A)
                 (A) (A) (A) (A) (A) (A) (A) (A) (A) (A) (A) (A)
                 (A) (A) (A) (A) (A) (A) (A) (A) (A) (A) (A) (A)
                 (A) (A) (A) (A) (A) (A) (A) (A) (A) (A) (A) (A)
                 (A) (A) (A) (A) (A) (A) (A) (A) (A) (A) (A) (A)
                 (A) (A) (A) (A) (A) (A) (A) (A) (A) (A) (A) (A)
                 (A) (A) (A) (A) (A) (A) (A) (A) (A) (A) (A) (A)
                 (A) (A) (A) (A) (A) (A) (A) (A) (A) (A) (A) (A)
                 (A) (A) (A) (A) (A) (A) (A) (A) (A) (A) (A) (A)
                 (A) (A) (A) (A) (A) (A) (A) (A) (A) (A) (A) (A)
                 (A) (A) (A) (A) (A) (A) (A) (A) (A) (A) (A) (A)
                 (A) (A) (A) (A) (A) (A) (A) (A) (A) (A) (A) (A)
                 (A) (A) (A) (A) (A) (A) (A) (A) (A) (A) (A) (A)
                 (A) (A) (A) (A) (A) (A) (A) (A) (A) (A) (A) (A)
                 (A) (A) (A) (A) (A) (A) (A) (A) (A) (A) (A) (A)
                 (A) (A) (A) (A) (A) (A) (A) (A) (A) (A) (A) (A)
                 (A) (A) (A) (A) (A) (A) (A) (A) (A) (A) (A) (A)
                 (A) (A) (A) (A) (A) (A) (A) (A) (A) (A) (A) (A)
                 (A) (A) (A) (A) (A) (A) (A) (A) (A) (A) (A) (A)
                 (A) (A) (A) (A) (A) (A) (A) (A) (A) (A) (A) (A)
                 (A) (A) (A) (A) (A) (A) (A) (A) (A) (A) (A) (A)
                 (A) (A) (A) (A) (A) (A) (A) (A) (A) (A) (A) (A)
                 (A) (A) (A) (A) (A) (A) (A) (A) (A) (A) (A) (A)
                 (A) (A) (A) (A) (A) (A) (A) (A) (A) (A) (A) (A)
                 (A) (A) (A) (A) (A) (A) (A) (A) (A) (A) (A) (A)
                 (A) (A) (A) (A) (A) (A) (A) (A) (A) (A) (A) (A)
                 (A) (A) (A) (A) (A) (A) (A) (A) (A) (A) (A) (A)
                 (A) (A) (A) (A) (A) (A) (A) (A) (A)
 The electronic state is 1-A.
 Alpha  occ. eigenvalues --  -89.95114 -25.21013 -25.20745 -19.63717 -14.79320
 Alpha  occ. eigenvalues --  -14.78918 -10.64639 -10.61589 -10.60602 -10.59581
 Alpha  occ. eigenvalues --  -10.59387 -10.59228 -10.59172 -10.58792 -10.58254
 Alpha  occ. eigenvalues --  -10.57719 -10.57569 -10.57370 -10.56753 -10.55978
 Alpha  occ. eigenvalues --  -10.55245 -10.54677 -10.54535  -8.30821  -7.13773
 Alpha  occ. eigenvalues --   -6.22724  -6.22545  -6.22400  -1.32857  -1.29609
 Alpha  occ. eigenvalues --   -1.17264  -1.11286  -1.09307  -1.00580  -0.94058
 Alpha  occ. eigenvalues --   -0.91830  -0.91182  -0.88848  -0.86430  -0.84728
 Alpha  occ. eigenvalues --   -0.82261  -0.80684  -0.77914  -0.73587  -0.70595
 Alpha  occ. eigenvalues --   -0.69244  -0.67710  -0.65966  -0.64769  -0.64225
 Alpha  occ. eigenvalues --   -0.62683  -0.62125  -0.60714  -0.59369  -0.58723
 Alpha  occ. eigenvalues --   -0.57759  -0.55297  -0.54614  -0.54040  -0.52882
 Alpha  occ. eigenvalues --   -0.52113  -0.51728  -0.51427  -0.51109  -0.50168
 Alpha  occ. eigenvalues --   -0.49172  -0.49147  -0.48813  -0.47944  -0.47508
 Alpha  occ. eigenvalues --   -0.47191  -0.47106  -0.46768  -0.46018  -0.45419
 Alpha  occ. eigenvalues --   -0.45251  -0.44485  -0.44135  -0.42023  -0.41257
 Alpha  occ. eigenvalues --   -0.40161  -0.36222  -0.35327  -0.33072  -0.32826
 Alpha  occ. eigenvalues --   -0.32122  -0.30397  -0.25189
 Alpha virt. eigenvalues --   -0.10339  -0.05851   0.00268   0.04429   0.05468
 Alpha virt. eigenvalues --    0.05967   0.06736   0.07948   0.08041   0.08277
 Alpha virt. eigenvalues --    0.08592   0.09842   0.10149   0.10467   0.10705
 Alpha virt. eigenvalues --    0.11214   0.11768   0.12012   0.12620   0.13048
 Alpha virt. eigenvalues --    0.13164   0.13378   0.13786   0.14776   0.15284
 Alpha virt. eigenvalues --    0.15613   0.15846   0.16688   0.17926   0.18543
 Alpha virt. eigenvalues --    0.19185   0.19691   0.19881   0.20781   0.21196
 Alpha virt. eigenvalues --    0.21851   0.22010   0.22491   0.22665   0.23127
 Alpha virt. eigenvalues --    0.23312   0.24000   0.24681   0.25003   0.25475
 Alpha virt. eigenvalues --    0.25791   0.26068   0.26377   0.26999   0.27341
 Alpha virt. eigenvalues --    0.27627   0.28529   0.28935   0.29221   0.30094
 Alpha virt. eigenvalues --    0.30753   0.31044   0.31347   0.31751   0.32359
 Alpha virt. eigenvalues --    0.33413   0.33832   0.33877   0.34162   0.34586
 Alpha virt. eigenvalues --    0.34862   0.35446   0.35741   0.35865   0.36460
 Alpha virt. eigenvalues --    0.37103   0.37420   0.37446   0.38250   0.38659
 Alpha virt. eigenvalues --    0.38920   0.39437   0.39839   0.40232   0.40501
 Alpha virt. eigenvalues --    0.40858   0.41338   0.42021   0.42390   0.42596
 Alpha virt. eigenvalues --    0.42873   0.43290   0.43775   0.43994   0.44776
 Alpha virt. eigenvalues --    0.45241   0.45865   0.46057   0.46684   0.47149
 Alpha virt. eigenvalues --    0.47497   0.47810   0.48272   0.48383   0.48592
 Alpha virt. eigenvalues --    0.48721   0.49384   0.49786   0.50112   0.50268
 Alpha virt. eigenvalues --    0.51457   0.52012   0.52359   0.52965   0.53321
 Alpha virt. eigenvalues --    0.53891   0.55063   0.55545   0.55957   0.56124
 Alpha virt. eigenvalues --    0.56389   0.56877   0.57428   0.57965   0.58669
 Alpha virt. eigenvalues --    0.59240   0.60202   0.60799   0.60972   0.61424
 Alpha virt. eigenvalues --    0.62400   0.62915   0.63221   0.63591   0.64235
 Alpha virt. eigenvalues --    0.64573   0.65931   0.66279   0.66843   0.67666
 Alpha virt. eigenvalues --    0.67921   0.68202   0.68453   0.68768   0.69437
 Alpha virt. eigenvalues --    0.69590   0.70565   0.70842   0.71041   0.71584
 Alpha virt. eigenvalues --    0.71875   0.72385   0.72716   0.73322   0.73950
 Alpha virt. eigenvalues --    0.74464   0.75670   0.75975   0.76494   0.76916
 Alpha virt. eigenvalues --    0.77168   0.78506   0.78752   0.79184   0.79975
 Alpha virt. eigenvalues --    0.80288   0.80776   0.81886   0.82254   0.82354
 Alpha virt. eigenvalues --    0.83195   0.84052   0.84491   0.85082   0.85981
 Alpha virt. eigenvalues --    0.86324   0.87322   0.88123   0.88642   0.89558
 Alpha virt. eigenvalues --    0.89902   0.90177   0.90988   0.91378   0.91675
 Alpha virt. eigenvalues --    0.91998   0.92944   0.93337   0.93657   0.94067
 Alpha virt. eigenvalues --    0.94289   0.94619   0.95504   0.96075   0.96227
 Alpha virt. eigenvalues --    0.97557   0.98368   0.98558   0.99100   0.99771
 Alpha virt. eigenvalues --    0.99936   1.00226   1.00587   1.01408   1.02380
 Alpha virt. eigenvalues --    1.03137   1.03635   1.04293   1.04841   1.05448
 Alpha virt. eigenvalues --    1.05644   1.06930   1.08331   1.08798   1.08930
 Alpha virt. eigenvalues --    1.09111   1.09262   1.10646   1.11223   1.12095
 Alpha virt. eigenvalues --    1.12716   1.13440   1.13986   1.15388   1.15789
 Alpha virt. eigenvalues --    1.16248   1.16809   1.17140   1.17648   1.18657
 Alpha virt. eigenvalues --    1.19485   1.19851   1.20810   1.21970   1.22130
 Alpha virt. eigenvalues --    1.22893   1.22962   1.23776   1.24364   1.25332
 Alpha virt. eigenvalues --    1.26317   1.26390   1.27625   1.28096   1.29276
 Alpha virt. eigenvalues --    1.29473   1.29786   1.30272   1.31125   1.31999
 Alpha virt. eigenvalues --    1.32118   1.32965   1.33176   1.33530   1.34685
 Alpha virt. eigenvalues --    1.35485   1.35773   1.36484   1.37207   1.37938
 Alpha virt. eigenvalues --    1.39243   1.39862   1.41462   1.41550   1.42753
 Alpha virt. eigenvalues --    1.43231   1.44104   1.44642   1.45297   1.45970
 Alpha virt. eigenvalues --    1.46656   1.46987   1.47514   1.47581   1.48205
 Alpha virt. eigenvalues --    1.48519   1.48687   1.49872   1.50506   1.50687
 Alpha virt. eigenvalues --    1.51374   1.51864   1.52196   1.52519   1.52967
 Alpha virt. eigenvalues --    1.53608   1.53690   1.54941   1.55612   1.55730
 Alpha virt. eigenvalues --    1.56157   1.56746   1.58053   1.58641   1.58862
 Alpha virt. eigenvalues --    1.59144   1.59593   1.60375   1.61251   1.61755
 Alpha virt. eigenvalues --    1.63128   1.64253   1.64635   1.65258   1.65365
 Alpha virt. eigenvalues --    1.66533   1.66990   1.67804   1.68443   1.69120
 Alpha virt. eigenvalues --    1.70733   1.71658   1.72454   1.72844   1.74071
 Alpha virt. eigenvalues --    1.74524   1.75081   1.75818   1.76396   1.77262
 Alpha virt. eigenvalues --    1.77857   1.79414   1.79893   1.80318   1.80900
 Alpha virt. eigenvalues --    1.81784   1.81959   1.82324   1.83227   1.83583
 Alpha virt. eigenvalues --    1.84096   1.85602   1.86503   1.86770   1.87906
 Alpha virt. eigenvalues --    1.88429   1.88737   1.89722   1.90121   1.91106
 Alpha virt. eigenvalues --    1.91539   1.93634   1.94594   1.95297   1.95636
 Alpha virt. eigenvalues --    1.97192   1.98427   1.99432   2.00272   2.01761
 Alpha virt. eigenvalues --    2.02390   2.03143   2.03634   2.05156   2.05953
 Alpha virt. eigenvalues --    2.07017   2.07876   2.09569   2.09696   2.10313
 Alpha virt. eigenvalues --    2.10722   2.11738   2.12192   2.13501   2.14917
 Alpha virt. eigenvalues --    2.15095   2.16636   2.17057   2.17769   2.18416
 Alpha virt. eigenvalues --    2.18926   2.19993   2.21496   2.22237   2.22592
 Alpha virt. eigenvalues --    2.23781   2.24858   2.26265   2.26975   2.27943
 Alpha virt. eigenvalues --    2.29044   2.30078   2.31503   2.32596   2.34159
 Alpha virt. eigenvalues --    2.34624   2.35735   2.36359   2.36825   2.39129
 Alpha virt. eigenvalues --    2.39716   2.40458   2.41382   2.42949   2.43449
 Alpha virt. eigenvalues --    2.45031   2.46525   2.47548   2.48275   2.51768
 Alpha virt. eigenvalues --    2.52284   2.53681   2.54536   2.55223   2.55517
 Alpha virt. eigenvalues --    2.56355   2.57877   2.58105   2.59168   2.59558
 Alpha virt. eigenvalues --    2.61065   2.61860   2.62446   2.63178   2.64296
 Alpha virt. eigenvalues --    2.64990   2.65328   2.65711   2.66255   2.67189
 Alpha virt. eigenvalues --    2.67866   2.68450   2.69464   2.70222   2.71001
 Alpha virt. eigenvalues --    2.72090   2.72388   2.73469   2.74390   2.74429
 Alpha virt. eigenvalues --    2.75015   2.75570   2.75967   2.76395   2.77195
 Alpha virt. eigenvalues --    2.78632   2.79726   2.81045   2.81992   2.82366
 Alpha virt. eigenvalues --    2.82655   2.83446   2.83788   2.83955   2.85124
 Alpha virt. eigenvalues --    2.85570   2.86199   2.86606   2.88338   2.88681
 Alpha virt. eigenvalues --    2.89347   2.89450   2.90249   2.90819   2.91850
 Alpha virt. eigenvalues --    2.92442   2.93032   2.93407   2.93819   2.94666
 Alpha virt. eigenvalues --    2.94869   2.94994   2.96322   2.96643   2.96852
 Alpha virt. eigenvalues --    2.97597   2.97836   2.98355   2.98732   2.98994
 Alpha virt. eigenvalues --    2.99352   3.00085   3.00684   3.01125   3.01481
 Alpha virt. eigenvalues --    3.02219   3.02512   3.02621   3.03474   3.03732
 Alpha virt. eigenvalues --    3.04158   3.04522   3.04886   3.05519   3.06528
 Alpha virt. eigenvalues --    3.07223   3.07652   3.08239   3.09289   3.09600
 Alpha virt. eigenvalues --    3.10529   3.10759   3.11143   3.11442   3.12009
 Alpha virt. eigenvalues --    3.12829   3.13417   3.13768   3.14067   3.15194
 Alpha virt. eigenvalues --    3.15857   3.16239   3.16692   3.17270   3.17996
 Alpha virt. eigenvalues --    3.18402   3.18572   3.18998   3.19537   3.19914
 Alpha virt. eigenvalues --    3.20556   3.21716   3.21874   3.22385   3.22454
 Alpha virt. eigenvalues --    3.23342   3.23848   3.24549   3.25238   3.25978
 Alpha virt. eigenvalues --    3.26413   3.26680   3.27764   3.28508   3.29008
 Alpha virt. eigenvalues --    3.29767   3.30501   3.30903   3.31235   3.31943
 Alpha virt. eigenvalues --    3.32119   3.33099   3.33932   3.34991   3.35370
 Alpha virt. eigenvalues --    3.36317   3.36608   3.37494   3.38655   3.38850
 Alpha virt. eigenvalues --    3.40403   3.40922   3.41291   3.42108   3.42683
 Alpha virt. eigenvalues --    3.43233   3.43635   3.45024   3.45889   3.46755
 Alpha virt. eigenvalues --    3.47449   3.47788   3.48205   3.49155   3.49636
 Alpha virt. eigenvalues --    3.50193   3.50721   3.50913   3.51609   3.52208
 Alpha virt. eigenvalues --    3.52632   3.53247   3.53911   3.54223   3.54663
 Alpha virt. eigenvalues --    3.56685   3.57126   3.57990   3.59000   3.59581
 Alpha virt. eigenvalues --    3.60258   3.61411   3.61926   3.62361   3.62480
 Alpha virt. eigenvalues --    3.63815   3.64344   3.65127   3.65853   3.66820
 Alpha virt. eigenvalues --    3.66956   3.69023   3.69996   3.70544   3.71413
 Alpha virt. eigenvalues --    3.72318   3.73338   3.73787   3.74565   3.75350
 Alpha virt. eigenvalues --    3.76132   3.76518   3.76723   3.77945   3.78983
 Alpha virt. eigenvalues --    3.79591   3.79957   3.80563   3.80993   3.81497
 Alpha virt. eigenvalues --    3.82433   3.83276   3.83727   3.84123   3.84363
 Alpha virt. eigenvalues --    3.85222   3.86012   3.86489   3.87158   3.87401
 Alpha virt. eigenvalues --    3.88299   3.88616   3.89636   3.90942   3.91237
 Alpha virt. eigenvalues --    3.92236   3.93208   3.93346   3.94114   3.94674
 Alpha virt. eigenvalues --    3.95006   3.96429   3.97562   3.97865   3.98591
 Alpha virt. eigenvalues --    3.99742   3.99989   4.00646   4.01662   4.02371
 Alpha virt. eigenvalues --    4.04261   4.04755   4.04888   4.05578   4.05978
 Alpha virt. eigenvalues --    4.07116   4.08249   4.08916   4.10549   4.11345
 Alpha virt. eigenvalues --    4.12091   4.13145   4.13509   4.14771   4.14974
 Alpha virt. eigenvalues --    4.15724   4.16820   4.18099   4.18745   4.19418
 Alpha virt. eigenvalues --    4.20102   4.20958   4.21246   4.21883   4.22549
 Alpha virt. eigenvalues --    4.22936   4.23491   4.24380   4.25183   4.26039
 Alpha virt. eigenvalues --    4.26362   4.26641   4.27061   4.28280   4.29277
 Alpha virt. eigenvalues --    4.31610   4.32115   4.33114   4.34981   4.35426
 Alpha virt. eigenvalues --    4.36869   4.37789   4.38254   4.39270   4.40289
 Alpha virt. eigenvalues --    4.41857   4.42540   4.42994   4.43877   4.46228
 Alpha virt. eigenvalues --    4.46936   4.48361   4.48447   4.49048   4.49856
 Alpha virt. eigenvalues --    4.50654   4.53866   4.54589   4.56584   4.56985
 Alpha virt. eigenvalues --    4.61439   4.62109   4.62349   4.62623   4.64828
 Alpha virt. eigenvalues --    4.65054   4.67452   4.68296   4.69129   4.71872
 Alpha virt. eigenvalues --    4.72738   4.74104   4.74780   4.77314   4.78953
 Alpha virt. eigenvalues --    4.80651   4.81250   4.84326   4.86660   4.88095
 Alpha virt. eigenvalues --    4.88775   4.89693   4.90995   4.92212   4.92953
 Alpha virt. eigenvalues --    4.94361   4.94440   4.94989   4.95925   4.97172
 Alpha virt. eigenvalues --    4.97428   4.97989   5.00695   5.01487   5.02991
 Alpha virt. eigenvalues --    5.04400   5.04867   5.05381   5.08253   5.08404
 Alpha virt. eigenvalues --    5.08743   5.09910   5.10553   5.11718   5.13209
 Alpha virt. eigenvalues --    5.13995   5.15396   5.16189   5.16734   5.17725
 Alpha virt. eigenvalues --    5.19112   5.20258   5.20516   5.22390   5.22670
 Alpha virt. eigenvalues --    5.22769   5.25094   5.25680   5.26003   5.27077
 Alpha virt. eigenvalues --    5.27584   5.30952   5.32046   5.33056   5.34380
 Alpha virt. eigenvalues --    5.35025   5.36247   5.37505   5.37723   5.42012
 Alpha virt. eigenvalues --    5.45108   5.46451   5.48542   5.53005   5.53162
 Alpha virt. eigenvalues --    5.54361   5.55674   5.56405   5.59152   5.60541
 Alpha virt. eigenvalues --    5.60952   5.63006   5.64164   5.66897   5.68641
 Alpha virt. eigenvalues --    5.73968   5.74912   5.77094   5.80290   5.83089
 Alpha virt. eigenvalues --    5.85795   5.91471   5.93382   5.95605   5.97090
 Alpha virt. eigenvalues --    6.04248   6.04623   6.07553   6.23145   6.28095
 Alpha virt. eigenvalues --    6.35795   6.39717   6.51987   6.53399   6.72501
 Alpha virt. eigenvalues --    6.76918   6.81712   6.82882   6.93548   6.93799
 Alpha virt. eigenvalues --    6.94921   6.96474   6.97187   6.98782   6.99386
 Alpha virt. eigenvalues --    7.00120   7.02278   7.04919   7.09754   7.10419
 Alpha virt. eigenvalues --    7.16678   7.22129   7.23408   7.26671   7.33601
 Alpha virt. eigenvalues --    7.34524   7.46857   8.43282   8.45343   8.53465
 Alpha virt. eigenvalues --    8.56709   8.81782   8.84183   8.88768   8.90454
 Alpha virt. eigenvalues --    8.91053   8.94468   8.98095   9.53782   9.55437
 Alpha virt. eigenvalues --   15.84184  20.51091  22.60859  22.95752  23.00819
 Alpha virt. eigenvalues --   23.03062  23.14024  23.25646  23.28353  23.31121
 Alpha virt. eigenvalues --   23.36271  23.41400  23.42133  23.49083  23.51284
 Alpha virt. eigenvalues --   23.61897  23.71581  23.81306  23.90372  33.06298
 Alpha virt. eigenvalues --   33.18444  43.97724  57.27054  57.47680
          Condensed to atoms (all electrons):
               1          2          3          4          5          6
     1  S   15.334781   0.376655  -0.101861  -0.071518   0.433948  -0.069882
     2  C    0.376655   5.526467   0.559740  -0.083735  -0.082705  -0.008863
     3  C   -0.101861   0.559740   4.914313   0.457294  -0.094254   0.013464
     4  C   -0.071518  -0.083735   0.457294   5.050774   0.561612  -0.133233
     5  C    0.433948  -0.082705  -0.094254   0.561612   4.919320   0.322254
     6  C   -0.069882  -0.008863   0.013464  -0.133233   0.322254   5.178194
     7  C   -0.009948   0.002096  -0.005388   0.023572  -0.044302   0.425547
     8  C    0.000933  -0.000237   0.000188  -0.001832  -0.012420  -0.034670
     9  N    0.000064   0.000000  -0.000002   0.000013  -0.000139  -0.000686
    10  C   -0.000009   0.000000  -0.000000   0.000004  -0.000043  -0.000336
    11  C   -0.000001  -0.000000   0.000000  -0.000000  -0.000019   0.000303
    12  C    0.000001   0.000000  -0.000000   0.000000   0.000003  -0.000068
    13  N    0.000001   0.000000   0.000000  -0.000000  -0.000001  -0.000116
    14  C    0.000000  -0.000000   0.000000  -0.000000  -0.000001   0.000002
    15  C   -0.000000  -0.000000  -0.000000  -0.000000  -0.000000   0.000000
    16  C    0.000000  -0.000000  -0.000000   0.000000   0.000000  -0.000001
    17  B    0.001172   0.000006  -0.000000  -0.000048  -0.000353  -0.001086
    18  F    0.000022   0.000000  -0.000000  -0.000003  -0.000041  -0.001281
    19  F    0.000007   0.000001  -0.000000  -0.000001   0.000059  -0.000043
    20  C    0.000020  -0.000001  -0.000000  -0.000015  -0.000331   0.000387
    21  C   -0.000243   0.000016  -0.000035   0.000482   0.002303  -0.017402
    22  C    0.000000  -0.000000   0.000000  -0.000000  -0.000003   0.000123
    23  C   -0.013270   0.085526  -0.051208   0.014246  -0.003230  -0.002912
    24  O    0.021662  -0.156899   0.004780  -0.000631   0.000746  -0.000311
    25  H    0.006349  -0.017972   0.401010  -0.017580   0.003757   0.000279
    26  H    0.006104   0.002126  -0.010982   0.392589  -0.012439  -0.001125
    27  H    0.005218  -0.000284   0.000907  -0.007744   0.005621   0.385926
    28  H   -0.007063   0.000145  -0.000332   0.001388  -0.003402  -0.013557
    29  H   -0.000000   0.000000   0.000000   0.000000   0.000000   0.000001
    30  H    0.000000   0.000000   0.000000  -0.000000  -0.000000  -0.000000
    31  H   -0.000000  -0.000000  -0.000000   0.000000   0.000000   0.000000
    32  H   -0.000000  -0.000000  -0.000000   0.000000   0.000000   0.000000
    33  H   -0.000011   0.000004  -0.000006   0.000125   0.000700  -0.001661
    34  H   -0.000000  -0.000000   0.000000  -0.000000   0.000000   0.000001
    35  H   -0.000000   0.000000  -0.000000  -0.000000   0.000000  -0.000001
    36  H   -0.000000  -0.000000   0.000000   0.000000  -0.000002  -0.000004
    37  H    0.009043  -0.147760  -0.007156   0.002870  -0.001231  -0.000082
               7          8          9         10         11         12
     1  S   -0.009948   0.000933   0.000064  -0.000009  -0.000001   0.000001
     2  C    0.002096  -0.000237   0.000000   0.000000  -0.000000   0.000000
     3  C   -0.005388   0.000188  -0.000002  -0.000000   0.000000  -0.000000
     4  C    0.023572  -0.001832   0.000013   0.000004  -0.000000   0.000000
     5  C   -0.044302  -0.012420  -0.000139  -0.000043  -0.000019   0.000003
     6  C    0.425547  -0.034670  -0.000686  -0.000336   0.000303  -0.000068
     7  C    5.241953   0.294202  -0.057140   0.003073  -0.004282  -0.000067
     8  C    0.294202   4.927738   0.448013  -0.118705  -0.000142   0.000452
     9  N   -0.057140   0.448013   6.361397   0.367258  -0.070650   0.006399
    10  C    0.003073  -0.118705   0.367258   5.101835   0.462497  -0.070478
    11  C   -0.004282  -0.000142  -0.070650   0.462497   5.052630   0.427877
    12  C   -0.000067   0.000452   0.006399  -0.070478   0.427877   5.060705
    13  N    0.000657   0.001374  -0.043868  -0.001879  -0.061826   0.373012
    14  C   -0.000010  -0.001154   0.000799  -0.001441   0.008429  -0.154365
    15  C    0.000007   0.000092  -0.000597  -0.000336   0.010177  -0.097045
    16  C   -0.000041  -0.000036   0.000416   0.003355  -0.057059   0.493019
    17  B   -0.011730  -0.018850   0.351461  -0.046914  -0.018898  -0.045655
    18  F    0.005561  -0.010444  -0.045486  -0.002802   0.003053  -0.005431
    19  F   -0.010759  -0.000578  -0.039034  -0.005776   0.002548  -0.005059
    20  C    0.032243  -0.083398  -0.063781   0.404898  -0.087880   0.006659
    21  C   -0.107016   0.532888  -0.117066  -0.103743   0.034858  -0.004736
    22  C   -0.001353   0.005430   0.005941  -0.066816  -0.008683  -0.001235
    23  C    0.000600   0.000017  -0.000000   0.000000   0.000000   0.000000
    24  O    0.000058   0.000001  -0.000000   0.000000   0.000000  -0.000000
    25  H   -0.000010  -0.000001   0.000000  -0.000000   0.000000  -0.000000
    26  H    0.000128   0.000257   0.000000   0.000001  -0.000000   0.000000
    27  H   -0.026191   0.000338   0.000219  -0.000034  -0.000005   0.000003
    28  H    0.334048   0.047104  -0.005875   0.002724   0.000002   0.000129
    29  H    0.000055   0.000154   0.002807   0.003409   0.335748   0.022255
    30  H   -0.000010  -0.000019   0.000057   0.000214  -0.000822   0.013054
    31  H    0.000000  -0.000000   0.000005   0.000030  -0.000437   0.002311
    32  H    0.000000   0.000001   0.000039   0.000095  -0.000800  -0.013427
    33  H    0.001705  -0.008957   0.002736   0.002991  -0.000496   0.000081
    34  H    0.000010  -0.000780   0.000261  -0.012684  -0.001846  -0.000565
    35  H    0.000044  -0.000455   0.000021  -0.012768  -0.000726  -0.000819
    36  H   -0.000019   0.001107  -0.000391   0.020336  -0.000299   0.000126
    37  H    0.000020   0.000000  -0.000000   0.000000   0.000000  -0.000000
              13         14         15         16         17         18
     1  S    0.000001   0.000000  -0.000000   0.000000   0.001172   0.000022
     2  C    0.000000  -0.000000  -0.000000  -0.000000   0.000006   0.000000
     3  C    0.000000   0.000000  -0.000000  -0.000000  -0.000000  -0.000000
     4  C   -0.000000  -0.000000  -0.000000   0.000000  -0.000048  -0.000003
     5  C   -0.000001  -0.000001  -0.000000   0.000000  -0.000353  -0.000041
     6  C   -0.000116   0.000002   0.000000  -0.000001  -0.001086  -0.001281
     7  C    0.000657  -0.000010   0.000007  -0.000041  -0.011730   0.005561
     8  C    0.001374  -0.001154   0.000092  -0.000036  -0.018850  -0.010444
     9  N   -0.043868   0.000799  -0.000597   0.000416   0.351461  -0.045486
    10  C   -0.001879  -0.001441  -0.000336   0.003355  -0.046914  -0.002802
    11  C   -0.061826   0.008429   0.010177  -0.057059  -0.018898   0.003053
    12  C    0.373012  -0.154365  -0.097045   0.493019  -0.045655  -0.005431
    13  N    6.308849   0.454167  -0.103852  -0.098762   0.361733  -0.039260
    14  C    0.454167   4.911518   0.562437  -0.084602  -0.024429  -0.008444
    15  C   -0.103852   0.562437   4.933657   0.551459  -0.004000   0.000017
    16  C   -0.098762  -0.084602   0.551459   4.949859   0.003185  -0.000103
    17  B    0.361733  -0.024429  -0.004000   0.003185   3.354786   0.382871
    18  F   -0.039260  -0.008444   0.000017  -0.000103   0.382871   9.103656
    19  F   -0.038398   0.002911  -0.000647   0.000460   0.342264  -0.031188
    20  C   -0.000157   0.000219  -0.000059  -0.000540   0.012718   0.000425
    21  C   -0.000608  -0.000054  -0.000003   0.000011  -0.005683  -0.000824
    22  C    0.000019  -0.000009  -0.000002  -0.000079   0.001191   0.000002
    23  C   -0.000000  -0.000000  -0.000000   0.000000  -0.000003  -0.000000
    24  O   -0.000000  -0.000000   0.000000   0.000000  -0.000001   0.000000
    25  H   -0.000000  -0.000000   0.000000  -0.000000  -0.000000   0.000000
    26  H   -0.000000   0.000000  -0.000000   0.000000  -0.000001  -0.000000
    27  H   -0.000001   0.000000   0.000000  -0.000000  -0.000081  -0.000002
    28  H   -0.000191  -0.000174   0.000009  -0.000003  -0.004926  -0.006514
    29  H    0.003686  -0.000232  -0.000061  -0.002235   0.001259   0.000049
    30  H   -0.027129   0.402717  -0.012950   0.001806  -0.005917  -0.000949
    31  H    0.003379  -0.020739   0.412401  -0.015399   0.000041   0.000014
    32  H    0.004677   0.001921  -0.011299   0.397763   0.000534   0.000005
    33  H    0.000001   0.000000   0.000000   0.000001  -0.000014   0.000003
    34  H   -0.000002   0.000001  -0.000002  -0.000004   0.000016  -0.000002
    35  H   -0.000010  -0.000003   0.000002  -0.000020  -0.000012   0.000000
    36  H    0.000000   0.000000  -0.000000   0.000003  -0.000024  -0.000000
    37  H   -0.000000  -0.000000   0.000000   0.000000  -0.000000  -0.000000
              19         20         21         22         23         24
     1  S    0.000007   0.000020  -0.000243   0.000000  -0.013270   0.021662
     2  C    0.000001  -0.000001   0.000016  -0.000000   0.085526  -0.156899
     3  C   -0.000000  -0.000000  -0.000035   0.000000  -0.051208   0.004780
     4  C   -0.000001  -0.000015   0.000482  -0.000000   0.014246  -0.000631
     5  C    0.000059  -0.000331   0.002303  -0.000003  -0.003230   0.000746
     6  C   -0.000043   0.000387  -0.017402   0.000123  -0.002912  -0.000311
     7  C   -0.010759   0.032243  -0.107016  -0.001353   0.000600   0.000058
     8  C   -0.000578  -0.083398   0.532888   0.005430   0.000017   0.000001
     9  N   -0.039034  -0.063781  -0.117066   0.005941  -0.000000  -0.000000
    10  C   -0.005776   0.404898  -0.103743  -0.066816   0.000000   0.000000
    11  C    0.002548  -0.087880   0.034858  -0.008683   0.000000   0.000000
    12  C   -0.005059   0.006659  -0.004736  -0.001235   0.000000  -0.000000
    13  N   -0.038398  -0.000157  -0.000608   0.000019  -0.000000  -0.000000
    14  C    0.002911   0.000219  -0.000054  -0.000009  -0.000000  -0.000000
    15  C   -0.000647  -0.000059  -0.000003  -0.000002  -0.000000   0.000000
    16  C    0.000460  -0.000540   0.000011  -0.000079   0.000000   0.000000
    17  B    0.342264   0.012718  -0.005683   0.001191  -0.000003  -0.000001
    18  F   -0.031188   0.000425  -0.000824   0.000002  -0.000000   0.000000
    19  F    9.126961   0.000121   0.000091   0.000005   0.000000   0.000000
    20  C    0.000121   5.185672   0.468398   0.295183  -0.000000  -0.000000
    21  C    0.000091   0.468398   5.065889  -0.050731   0.000001   0.000000
    22  C    0.000005   0.295183  -0.050731   4.974386   0.000000  -0.000000
    23  C    0.000000  -0.000000   0.000001   0.000000   4.712285   0.629119
    24  O    0.000000  -0.000000   0.000000  -0.000000   0.629119   7.939889
    25  H   -0.000000   0.000000   0.000000  -0.000000  -0.005435   0.000109
    26  H   -0.000000   0.000000   0.000046   0.000000   0.000177   0.000003
    27  H   -0.000011   0.000957  -0.000881   0.000043  -0.000026  -0.000001
    28  H    0.013009  -0.002178   0.009722  -0.000003   0.000068   0.000013
    29  H    0.000022  -0.000937  -0.000295   0.001424   0.000000   0.000000
    30  H    0.002456  -0.000004   0.000003   0.000000  -0.000000  -0.000000
    31  H   -0.000007  -0.000000   0.000000  -0.000000   0.000000   0.000000
    32  H    0.000006   0.000043  -0.000006   0.000007   0.000000   0.000000
    33  H    0.000002   0.009024   0.373759  -0.000318   0.000000   0.000000
    34  H    0.000000  -0.041767   0.006536   0.424540   0.000000   0.000000
    35  H   -0.000000  -0.038549   0.004393   0.420880   0.000000   0.000000
    36  H   -0.000000  -0.034160  -0.022475   0.414043  -0.000000  -0.000000
    37  H   -0.000000  -0.000000   0.000000  -0.000000   0.520934  -0.047749
              25         26         27         28         29         30
     1  S    0.006349   0.006104   0.005218  -0.007063  -0.000000   0.000000
     2  C   -0.017972   0.002126  -0.000284   0.000145   0.000000   0.000000
     3  C    0.401010  -0.010982   0.000907  -0.000332   0.000000   0.000000
     4  C   -0.017580   0.392589  -0.007744   0.001388   0.000000  -0.000000
     5  C    0.003757  -0.012439   0.005621  -0.003402   0.000000  -0.000000
     6  C    0.000279  -0.001125   0.385926  -0.013557   0.000001  -0.000000
     7  C   -0.000010   0.000128  -0.026191   0.334048   0.000055  -0.000010
     8  C   -0.000001   0.000257   0.000338   0.047104   0.000154  -0.000019
     9  N    0.000000   0.000000   0.000219  -0.005875   0.002807   0.000057
    10  C   -0.000000   0.000001  -0.000034   0.002724   0.003409   0.000214
    11  C    0.000000  -0.000000  -0.000005   0.000002   0.335748  -0.000822
    12  C   -0.000000   0.000000   0.000003   0.000129   0.022255   0.013054
    13  N   -0.000000  -0.000000  -0.000001  -0.000191   0.003686  -0.027129
    14  C   -0.000000   0.000000   0.000000  -0.000174  -0.000232   0.402717
    15  C    0.000000  -0.000000   0.000000   0.000009  -0.000061  -0.012950
    16  C   -0.000000   0.000000  -0.000000  -0.000003  -0.002235   0.001806
    17  B   -0.000000  -0.000001  -0.000081  -0.004926   0.001259  -0.005917
    18  F    0.000000  -0.000000  -0.000002  -0.006514   0.000049  -0.000949
    19  F   -0.000000  -0.000000  -0.000011   0.013009   0.000022   0.002456
    20  C    0.000000   0.000000   0.000957  -0.002178  -0.000937  -0.000004
    21  C    0.000000   0.000046  -0.000881   0.009722  -0.000295   0.000003
    22  C   -0.000000   0.000000   0.000043  -0.000003   0.001424   0.000000
    23  C   -0.005435   0.000177  -0.000026   0.000068   0.000000  -0.000000
    24  O    0.000109   0.000003  -0.000001   0.000013   0.000000  -0.000000
    25  H    0.443365   0.000743   0.000020   0.000004   0.000000  -0.000000
    26  H    0.000743   0.444747   0.002494   0.000020  -0.000000   0.000000
    27  H    0.000020   0.002494   0.498693   0.002355  -0.000000   0.000000
    28  H    0.000004   0.000020   0.002355   0.498293  -0.000001  -0.000015
    29  H    0.000000  -0.000000  -0.000000  -0.000001   0.457239   0.000002
    30  H   -0.000000   0.000000   0.000000  -0.000015   0.000002   0.444593
    31  H    0.000000   0.000000   0.000000   0.000000  -0.000000   0.000437
    32  H    0.000000   0.000000   0.000000  -0.000000   0.001630  -0.000170
    33  H   -0.000000   0.000042   0.000625   0.000136  -0.000013   0.000000
    34  H    0.000000  -0.000000  -0.000001  -0.000000  -0.001122  -0.000000
    35  H   -0.000000  -0.000000  -0.000000   0.000000  -0.001295  -0.000000
    36  H    0.000000  -0.000000   0.000007  -0.000000   0.000088   0.000000
    37  H    0.000199   0.000032  -0.000003   0.000003   0.000000  -0.000000
              31         32         33         34         35         36
     1  S   -0.000000  -0.000000  -0.000011  -0.000000  -0.000000  -0.000000
     2  C   -0.000000  -0.000000   0.000004  -0.000000   0.000000  -0.000000
     3  C   -0.000000  -0.000000  -0.000006   0.000000  -0.000000   0.000000
     4  C    0.000000   0.000000   0.000125  -0.000000  -0.000000   0.000000
     5  C    0.000000   0.000000   0.000700   0.000000   0.000000  -0.000002
     6  C    0.000000   0.000000  -0.001661   0.000001  -0.000001  -0.000004
     7  C    0.000000   0.000000   0.001705   0.000010   0.000044  -0.000019
     8  C   -0.000000   0.000001  -0.008957  -0.000780  -0.000455   0.001107
     9  N    0.000005   0.000039   0.002736   0.000261   0.000021  -0.000391
    10  C    0.000030   0.000095   0.002991  -0.012684  -0.012768   0.020336
    11  C   -0.000437  -0.000800  -0.000496  -0.001846  -0.000726  -0.000299
    12  C    0.002311  -0.013427   0.000081  -0.000565  -0.000819   0.000126
    13  N    0.003379   0.004677   0.000001  -0.000002  -0.000010   0.000000
    14  C   -0.020739   0.001921   0.000000   0.000001  -0.000003   0.000000
    15  C    0.412401  -0.011299   0.000000  -0.000002   0.000002  -0.000000
    16  C   -0.015399   0.397763   0.000001  -0.000004  -0.000020   0.000003
    17  B    0.000041   0.000534  -0.000014   0.000016  -0.000012  -0.000024
    18  F    0.000014   0.000005   0.000003  -0.000002   0.000000  -0.000000
    19  F   -0.000007   0.000006   0.000002   0.000000  -0.000000  -0.000000
    20  C   -0.000000   0.000043   0.009024  -0.041767  -0.038549  -0.034160
    21  C    0.000000  -0.000006   0.373759   0.006536   0.004393  -0.022475
    22  C   -0.000000   0.000007  -0.000318   0.424540   0.420880   0.414043
    23  C    0.000000   0.000000   0.000000   0.000000   0.000000  -0.000000
    24  O    0.000000   0.000000   0.000000   0.000000   0.000000  -0.000000
    25  H    0.000000   0.000000  -0.000000   0.000000  -0.000000   0.000000
    26  H    0.000000   0.000000   0.000042  -0.000000  -0.000000  -0.000000
    27  H    0.000000   0.000000   0.000625  -0.000001  -0.000000   0.000007
    28  H    0.000000  -0.000000   0.000136  -0.000000   0.000000  -0.000000
    29  H   -0.000000   0.001630  -0.000013  -0.001122  -0.001295   0.000088
    30  H    0.000437  -0.000170   0.000000  -0.000000  -0.000000   0.000000
    31  H    0.441031  -0.000020  -0.000000  -0.000000   0.000000  -0.000000
    32  H   -0.000020   0.432993  -0.000000  -0.000000  -0.000004   0.000000
    33  H   -0.000000  -0.000000   0.444921  -0.000043  -0.000106   0.001449
    34  H   -0.000000  -0.000000  -0.000043   0.521800  -0.031286  -0.019055
    35  H    0.000000  -0.000004  -0.000106  -0.031286   0.521299  -0.018221
    36  H   -0.000000   0.000000   0.001449  -0.019055  -0.018221   0.530370
    37  H    0.000000   0.000000   0.000000   0.000000   0.000000   0.000000
              37
     1  S    0.009043
     2  C   -0.147760
     3  C   -0.007156
     4  C    0.002870
     5  C   -0.001231
     6  C   -0.000082
     7  C    0.000020
     8  C    0.000000
     9  N   -0.000000
    10  C    0.000000
    11  C    0.000000
    12  C   -0.000000
    13  N   -0.000000
    14  C   -0.000000
    15  C    0.000000
    16  C    0.000000
    17  B   -0.000000
    18  F   -0.000000
    19  F   -0.000000
    20  C   -0.000000
    21  C    0.000000
    22  C   -0.000000
    23  C    0.520934
    24  O   -0.047749
    25  H    0.000199
    26  H    0.000032
    27  H   -0.000003
    28  H    0.000003
    29  H    0.000000
    30  H   -0.000000
    31  H    0.000000
    32  H    0.000000
    33  H    0.000000
    34  H    0.000000
    35  H    0.000000
    36  H    0.000000
    37  H    0.561179
 Mulliken charges:
               1
     1  S    0.077825
     2  C   -0.054327
     3  C   -0.080470
     4  C   -0.188628
     5  C    0.004592
     6  C   -0.039161
     7  C   -0.087312
     8  C    0.032387
     9  N   -0.103195
    10  C    0.072043
    11  C   -0.023253
    12  C   -0.007134
    13  N   -0.095495
    14  C   -0.049464
    15  C   -0.239406
    16  C   -0.142452
    17  B    0.375388
    18  F   -0.342904
    19  F   -0.359421
    20  C   -0.063210
    21  C   -0.067597
    22  C   -0.413987
    23  C    0.113112
    24  O   -0.390786
    25  H    0.185164
    26  H    0.175038
    27  H    0.131840
    28  H    0.135063
    29  H    0.176364
    30  H    0.182646
    31  H    0.176955
    32  H    0.186013
    33  H    0.173320
    34  H    0.155993
    35  H    0.157634
    36  H    0.127122
    37  H    0.109700
 Sum of Mulliken charges =  -0.00000
 Mulliken charges with hydrogens summed into heavy atoms:
               1
     1  S    0.077825
     2  C   -0.054327
     3  C    0.104694
     4  C   -0.013589
     5  C    0.004592
     6  C    0.092679
     7  C    0.047751
     8  C    0.032387
     9  N   -0.103195
    10  C    0.072043
    11  C    0.153112
    12  C   -0.007134
    13  N   -0.095495
    14  C    0.133182
    15  C   -0.062451
    16  C    0.043561
    17  B    0.375388
    18  F   -0.342904
    19  F   -0.359421
    20  C   -0.063210
    21  C    0.105723
    22  C    0.026763
    23  C    0.222812
    24  O   -0.390786
 Electronic spatial extent (au):  <R**2>=          11494.6543
 Charge=             -0.0000 electrons
 Dipole moment (field-independent basis, Debye):
    X=              3.6763    Y=             10.8419    Z=             -0.6496  Tot=             11.4667
 Quadrupole moment (field-independent basis, Debye-Ang):
   XX=           -102.2477   YY=           -131.7525   ZZ=           -154.7827
   XY=            -23.3687   XZ=             -6.0120   YZ=              0.5613
 Traceless Quadrupole moment (field-independent basis, Debye-Ang):
   XX=             27.3466   YY=             -2.1582   ZZ=            -25.1884
   XY=            -23.3687   XZ=             -6.0120   YZ=              0.5613
 Octapole moment (field-independent basis, Debye-Ang**2):
  XXX=             82.9497  YYY=             54.4879  ZZZ=             -0.9033  XYY=            104.7885
  XXY=            177.9344  XXZ=              9.6704  XZZ=            -12.8980  YZZ=             -3.0800
  YYZ=              2.7795  XYZ=              5.4357
 Hexadecapole moment (field-independent basis, Debye-Ang**3):
 XXXX=         -10347.1227 YYYY=          -2693.5952 ZZZZ=           -278.1375 XXXY=           -941.7824
 XXXZ=           -157.7964 YYYX=           -271.6899 YYYZ=             -8.1810 ZZZX=             11.9170
 ZZZY=              1.2301 XXYY=          -2635.8552 XXZZ=          -2246.0577 YYZZ=           -582.1071
 XXYZ=            -12.9504 YYXZ=            -39.0934 ZZXY=             57.6004
 N-N= 2.016832851554D+03 E-N=-7.469282896456D+03  KE= 1.457213938794D+03
 No NMR shielding tensors so no spin-rotation constants.
 Leave Link  601 at Sat Nov  8 10:44:33 2025, MaxMem= 30870077440 cpu:              96.0 elap:               1.8
 (Enter /public/software/gauss/g16/l9999.exe)
 1\1\GINC-CU303\SP\RM062X\def2TZVPP\C17H13B1F2N2O1S1\BAIDING\08-Nov-202
 5\0\\#p M062X/DEF2TZVPP scrf=(solvent=water) em=GD3\\Energy calculatio
 n for M99948989\\0,1\S,0,-3.650927,-0.702059,-0.107603\C,0,-5.353992,-
 0.304621,-0.021612\C,0,-5.552832,1.058396,0.114496\C,0,-4.350217,1.788
 34,0.150219\C,0,-3.21588,0.990618,0.042303\C,0,-1.861719,1.474115,0.05
 29\C,0,-0.739029,0.715631,-0.042769\C,0,0.591352,1.261395,-0.035957\N,
 0,1.699726,0.471029,-0.014638\C,0,2.818397,1.303894,-0.034884\C,0,4.10
 3062,0.7819,-0.050194\C,0,4.329923,-0.596259,-0.054243\N,0,3.25502,-1.
 483955,-0.009313\C,0,3.753384,-2.736294,-0.070314\C,0,5.156103,-2.6948
 42,-0.157463\C,0,5.523042,-1.350228,-0.144985\B,0,1.77038,-1.076801,0.
 200778\F,0,1.360356,-1.396394,1.498959\F,0,0.958572,-1.74129,-0.722511
 \C,0,2.378647,2.667109,-0.074703\C,0,0.997897,2.627388,-0.074337\C,0,3
 .261566,3.87247,-0.126652\C,0,-6.371369,-1.327536,-0.090908\O,0,-6.145
 979,-2.533318,-0.214479\H,0,-6.54114,1.498914,0.184713\H,0,-4.290037,2
 .86566,0.252196\H,0,-1.777137,2.553504,0.153206\H,0,-0.815213,-0.36290
 2,-0.141995\H,0,4.950731,1.458128,-0.07992\H,0,3.099834,-3.597951,-0.0
 47051\H,0,5.807221,-3.554955,-0.225292\H,0,6.51903,-0.932889,-0.205045
 \H,0,0.330877,3.477197,-0.117102\H,0,3.938986,3.906846,0.733497\H,0,3.
 885104,3.869659,-1.02758\H,0,2.664807,4.787364,-0.128582\H,0,-7.405874
 ,-0.944302,-0.023215\\Version=ES64L-G16RevA.03\State=1-A\HF=-1463.2729
 779\RMSD=8.929e-09\Dipole=1.4463626,4.26555,-0.2555857\Quadrupole=20.3
 315537,-1.6045679,-18.7269859,-17.3740235,-4.4698084,0.4173065\PG=C01 
 [X(C17H13B1F2N2O1S1)]\\@


 THE GREAT THING ABOUT BEING IMPERFECT IS THE JOY IT BRINGS OTHERS.
   -- SIGN OUTSIDE LAKE AGASSIZ JR. HIGH SCHOOL, FARGO, N.D.
 Job cpu time:       0 days  5 hours  2 minutes 12.3 seconds.
 Elapsed time:       0 days  0 hours  4 minutes 49.3 seconds.
 File lengths (MBytes):  RWF=    624 Int=      0 D2E=      0 Chk=     53 Scr=      1
 Normal termination of Gaussian 16 at Sat Nov  8 10:44:33 2025.
