 Entering Gaussian System, Link 0=g16
 Input=M99949116_sp.gjf
 Output=M99949116_sp.log
 Initial command:
 /public/software/gauss/g16/l1.exe "/public/home/baiding/1101_v2_sp/tmp_M99949116_sp_1575143/Gau-1485305.inp" -scrdir="/public/home/baiding/1101_v2_sp/tmp_M99949116_sp_1575143/"
 Entering Link 1 = /public/software/gauss/g16/l1.exe PID=   1485306.
  
 Copyright (c) 1988,1990,1992,1993,1995,1998,2003,2009,2016,
            Gaussian, Inc.  All Rights Reserved.
  
 This is part of the Gaussian(R) 16 program.  It is based on
 the Gaussian(R) 09 system (copyright 2009, Gaussian, Inc.),
 the Gaussian(R) 03 system (copyright 2003, Gaussian, Inc.),
 the Gaussian(R) 98 system (copyright 1998, Gaussian, Inc.),
 the Gaussian(R) 94 system (copyright 1995, Gaussian, Inc.),
 the Gaussian 92(TM) system (copyright 1992, Gaussian, Inc.),
 the Gaussian 90(TM) system (copyright 1990, Gaussian, Inc.),
 the Gaussian 88(TM) system (copyright 1988, Gaussian, Inc.),
 the Gaussian 86(TM) system (copyright 1986, Carnegie Mellon
 University), and the Gaussian 82(TM) system (copyright 1983,
 Carnegie Mellon University). Gaussian is a federally registered
 trademark of Gaussian, Inc.
  
 This software contains proprietary and confidential information,
 including trade secrets, belonging to Gaussian, Inc.
  
 This software is provided under written license and may be
 used, copied, transmitted, or stored only in accord with that
 written license.
  
 The following legend is applicable only to US Government
 contracts under FAR:
  
                    RESTRICTED RIGHTS LEGEND
  
 Use, reproduction and disclosure by the US Government is
 subject to restrictions as set forth in subparagraphs (a)
 and (c) of the Commercial Computer Software - Restricted
 Rights clause in FAR 52.227-19.
  
 Gaussian, Inc.
 340 Quinnipiac St., Bldg. 40, Wallingford CT 06492
  
  
 ---------------------------------------------------------------
 Warning -- This program may not be used in any manner that
 competes with the business of Gaussian, Inc. or will provide
 assistance to any competitor of Gaussian, Inc.  The licensee
 of this program is prohibited from giving any competitor of
 Gaussian, Inc. access to this program.  By using this program,
 the user acknowledges that Gaussian, Inc. is engaged in the
 business of creating and licensing software in the field of
 computational chemistry and represents and warrants to the
 licensee that it is not a competitor of Gaussian, Inc. and that
 it will not use this program in any manner prohibited above.
 ---------------------------------------------------------------
  

 Cite this work as:
 Gaussian 16, Revision A.03,
 M. J. Frisch, G. W. Trucks, H. B. Schlegel, G. E. Scuseria, 
 M. A. Robb, J. R. Cheeseman, G. Scalmani, V. Barone, 
 G. A. Petersson, H. Nakatsuji, X. Li, M. Caricato, A. V. Marenich, 
 J. Bloino, B. G. Janesko, R. Gomperts, B. Mennucci, H. P. Hratchian, 
 J. V. Ortiz, A. F. Izmaylov, J. L. Sonnenberg, D. Williams-Young, 
 F. Ding, F. Lipparini, F. Egidi, J. Goings, B. Peng, A. Petrone, 
 T. Henderson, D. Ranasinghe, V. G. Zakrzewski, J. Gao, N. Rega, 
 G. Zheng, W. Liang, M. Hada, M. Ehara, K. Toyota, R. Fukuda, 
 J. Hasegawa, M. Ishida, T. Nakajima, Y. Honda, O. Kitao, H. Nakai, 
 T. Vreven, K. Throssell, J. A. Montgomery, Jr., J. E. Peralta, 
 F. Ogliaro, M. J. Bearpark, J. J. Heyd, E. N. Brothers, K. N. Kudin, 
 V. N. Staroverov, T. A. Keith, R. Kobayashi, J. Normand, 
 K. Raghavachari, A. P. Rendell, J. C. Burant, S. S. Iyengar, 
 J. Tomasi, M. Cossi, J. M. Millam, M. Klene, C. Adamo, R. Cammi, 
 J. W. Ochterski, R. L. Martin, K. Morokuma, O. Farkas, 
 J. B. Foresman, and D. J. Fox, Gaussian, Inc., Wallingford CT, 2016.
 
 ******************************************
 Gaussian 16:  ES64L-G16RevA.03 25-Dec-2016
                 8-Nov-2025 
 ******************************************
 %nprocshared=64
 Will use up to   64 processors via shared memory.
 %mem=230GB
 %chk=M99949116_sp.chk
 ----------------------------------------------
 #p M062X/DEF2TZVPP scrf=(solvent=water) em=GD3
 ----------------------------------------------
 1/38=1,172=1/1;
 2/12=2,17=6,18=5,40=1/2;
 3/5=44,7=202,11=2,25=1,30=1,70=2201,72=1,74=-55,124=31/1,2,3;
 4//1;
 5/5=2,38=5,53=1/2;
 6/7=2,8=2,9=2,10=2,28=1/1;
 99/5=1,9=1/99;
 Leave Link    1 at Sat Nov  8 11:02:50 2025, MaxMem= 30870077440 cpu:              14.2 elap:               0.2
 (Enter /public/software/gauss/g16/l101.exe)
 --------------------------------
 Energy calculation for M99949116
 --------------------------------
 Symbolic Z-matrix:
 Charge =  0 Multiplicity = 1
 F                    -2.53715  -1.6716   -0.78272 
 B                    -3.38034  -1.03759   0.13674 
 F                    -2.98869  -1.38202   1.4366 
 N                    -4.85103  -1.46606  -0.11297 
 C                    -5.93975  -0.59935  -0.17535 
 C                    -5.73638   0.78873  -0.14237 
 C                    -4.46699   1.32853  -0.08151 
 N                    -3.32999   0.51374  -0.04291 
 C                    -2.23523   1.32082  -0.01324 
 C                    -2.66788   2.68377  -0.03741 
 C                    -4.04549   2.70097  -0.08034 
 C                    -4.9473    3.89208  -0.13425 
 C                    -0.8956    0.80158   0.01373 
 C                     0.20344   1.58587   0.16669 
 C                     1.58817   1.1521    0.2022 
 C                     1.98813  -0.18449   0.14695 
 C                     3.33636  -0.54616   0.20649 
 N                     3.57922  -1.95348   0.41978 
 O                     2.79052  -2.78119  -0.06798 
 O                     4.52589  -2.28984   1.14981 
 C                     4.38975   0.43058   0.21555 
 N                     5.70655   0.16314   0.0314 
 C                     6.24986  -1.05025  -0.6142 
 C                     7.54489  -0.57014  -1.27427 
 C                     8.02127   0.5332   -0.32236 
 C                     6.71937   1.24564   0.04244 
 C                     3.94993   1.78033   0.3653 
 C                     2.61676   2.11837   0.352 
 C                    -7.11292  -1.37067  -0.30982 
 C                    -6.72033  -2.71248  -0.33072 
 C                    -5.32386  -2.73055  -0.20572 
 H                    -6.59501   1.45034  -0.18379 
 H                    -2.01544   3.54581  -0.04292 
 H                    -5.63831   3.90612   0.71581 
 H                    -4.36655   4.81714  -0.11753 
 H                    -5.55759   3.88781  -1.04418 
 H                    -0.79263  -0.27143  -0.10543 
 H                     0.06492   2.65928   0.27805 
 H                     1.25798  -0.98369   0.11925 
 H                     6.45248  -1.82667   0.12997 
 H                     5.52509  -1.45218  -1.32858 
 H                     8.26331  -1.38467  -1.39183 
 H                     7.33351  -0.15089  -2.26392 
 H                     8.47762   0.0943    0.57131 
 H                     8.74213   1.21801  -0.77444 
 H                     6.75021   1.73385   1.02026 
 H                     6.46658   2.00281  -0.7102 
 H                     4.68606   2.56755   0.45248 
 H                     2.34196   3.16548   0.44299 
 H                    -8.11494  -0.97158  -0.39175 
 H                    -7.35525  -3.58201  -0.42836 
 H                    -4.65353  -3.57892  -0.17638 
 
 ITRead=  0  0  0  0  0  0  0  0  0  0  0  0  0  0  0  0  0  0  0  0
 ITRead=  0  0  0  0  0  0  0  0  0  0  0  0  0  0  0  0  0  0  0  0
 ITRead=  0  0  0  0  0  0  0  0  0  0  0  0
 MicOpt= -1 -1 -1 -1 -1 -1 -1 -1 -1 -1 -1 -1 -1 -1 -1 -1 -1 -1 -1 -1
 MicOpt= -1 -1 -1 -1 -1 -1 -1 -1 -1 -1 -1 -1 -1 -1 -1 -1 -1 -1 -1 -1
 MicOpt= -1 -1 -1 -1 -1 -1 -1 -1 -1 -1 -1 -1
 NAtoms=     52 NQM=       52 NQMF=       0 NMMI=      0 NMMIF=      0
                NMic=       0 NMicF=      0.
                    Isotopes and Nuclear Properties:
 (Nuclear quadrupole moments (NQMom) in fm**2, nuclear magnetic moments (NMagM)
  in nuclear magnetons)

  Atom         1           2           3           4           5           6           7           8           9          10
 IAtWgt=          19          11          19          14          12          12          12          14          12          12
 AtmWgt=  18.9984033  11.0093053  18.9984033  14.0030740  12.0000000  12.0000000  12.0000000  14.0030740  12.0000000  12.0000000
 NucSpn=           1           3           1           2           0           0           0           2           0           0
 AtZEff=  -0.0000000  -0.0000000  -0.0000000  -0.0000000  -0.0000000  -0.0000000  -0.0000000  -0.0000000  -0.0000000  -0.0000000
 NQMom=    0.0000000   4.0590000   0.0000000   2.0440000   0.0000000   0.0000000   0.0000000   2.0440000   0.0000000   0.0000000
 NMagM=    2.6288670   2.6886370   2.6288670   0.4037610   0.0000000   0.0000000   0.0000000   0.4037610   0.0000000   0.0000000
 AtZNuc=   9.0000000   5.0000000   9.0000000   7.0000000   6.0000000   6.0000000   6.0000000   7.0000000   6.0000000   6.0000000

  Atom        11          12          13          14          15          16          17          18          19          20
 IAtWgt=          12          12          12          12          12          12          12          14          16          16
 AtmWgt=  12.0000000  12.0000000  12.0000000  12.0000000  12.0000000  12.0000000  12.0000000  14.0030740  15.9949146  15.9949146
 NucSpn=           0           0           0           0           0           0           0           2           0           0
 AtZEff=  -0.0000000  -0.0000000  -0.0000000  -0.0000000  -0.0000000  -0.0000000  -0.0000000  -0.0000000  -0.0000000  -0.0000000
 NQMom=    0.0000000   0.0000000   0.0000000   0.0000000   0.0000000   0.0000000   0.0000000   2.0440000   0.0000000   0.0000000
 NMagM=    0.0000000   0.0000000   0.0000000   0.0000000   0.0000000   0.0000000   0.0000000   0.4037610   0.0000000   0.0000000
 AtZNuc=   6.0000000   6.0000000   6.0000000   6.0000000   6.0000000   6.0000000   6.0000000   7.0000000   8.0000000   8.0000000

  Atom        21          22          23          24          25          26          27          28          29          30
 IAtWgt=          12          14          12          12          12          12          12          12          12          12
 AtmWgt=  12.0000000  14.0030740  12.0000000  12.0000000  12.0000000  12.0000000  12.0000000  12.0000000  12.0000000  12.0000000
 NucSpn=           0           2           0           0           0           0           0           0           0           0
 AtZEff=  -0.0000000  -0.0000000  -0.0000000  -0.0000000  -0.0000000  -0.0000000  -0.0000000  -0.0000000  -0.0000000  -0.0000000
 NQMom=    0.0000000   2.0440000   0.0000000   0.0000000   0.0000000   0.0000000   0.0000000   0.0000000   0.0000000   0.0000000
 NMagM=    0.0000000   0.4037610   0.0000000   0.0000000   0.0000000   0.0000000   0.0000000   0.0000000   0.0000000   0.0000000
 AtZNuc=   6.0000000   7.0000000   6.0000000   6.0000000   6.0000000   6.0000000   6.0000000   6.0000000   6.0000000   6.0000000

  Atom        31          32          33          34          35          36          37          38          39          40
 IAtWgt=          12           1           1           1           1           1           1           1           1           1
 AtmWgt=  12.0000000   1.0078250   1.0078250   1.0078250   1.0078250   1.0078250   1.0078250   1.0078250   1.0078250   1.0078250
 NucSpn=           0           1           1           1           1           1           1           1           1           1
 AtZEff=  -0.0000000  -0.0000000  -0.0000000  -0.0000000  -0.0000000  -0.0000000  -0.0000000  -0.0000000  -0.0000000  -0.0000000
 NQMom=    0.0000000   0.0000000   0.0000000   0.0000000   0.0000000   0.0000000   0.0000000   0.0000000   0.0000000   0.0000000
 NMagM=    0.0000000   2.7928460   2.7928460   2.7928460   2.7928460   2.7928460   2.7928460   2.7928460   2.7928460   2.7928460
 AtZNuc=   6.0000000   1.0000000   1.0000000   1.0000000   1.0000000   1.0000000   1.0000000   1.0000000   1.0000000   1.0000000

  Atom        41          42          43          44          45          46          47          48          49          50
 IAtWgt=           1           1           1           1           1           1           1           1           1           1
 AtmWgt=   1.0078250   1.0078250   1.0078250   1.0078250   1.0078250   1.0078250   1.0078250   1.0078250   1.0078250   1.0078250
 NucSpn=           1           1           1           1           1           1           1           1           1           1
 AtZEff=  -0.0000000  -0.0000000  -0.0000000  -0.0000000  -0.0000000  -0.0000000  -0.0000000  -0.0000000  -0.0000000  -0.0000000
 NQMom=    0.0000000   0.0000000   0.0000000   0.0000000   0.0000000   0.0000000   0.0000000   0.0000000   0.0000000   0.0000000
 NMagM=    2.7928460   2.7928460   2.7928460   2.7928460   2.7928460   2.7928460   2.7928460   2.7928460   2.7928460   2.7928460
 AtZNuc=   1.0000000   1.0000000   1.0000000   1.0000000   1.0000000   1.0000000   1.0000000   1.0000000   1.0000000   1.0000000

  Atom        51          52
 IAtWgt=           1           1
 AtmWgt=   1.0078250   1.0078250
 NucSpn=           1           1
 AtZEff=  -0.0000000  -0.0000000
 NQMom=    0.0000000   0.0000000
 NMagM=    2.7928460   2.7928460
 AtZNuc=   1.0000000   1.0000000
 Leave Link  101 at Sat Nov  8 11:02:50 2025, MaxMem= 30870077440 cpu:               5.5 elap:               0.1
 (Enter /public/software/gauss/g16/l202.exe)
 Stoichiometry    C22H21BF2N4O2
 Framework group  C1[X(C22H21BF2N4O2)]
 Deg. of freedom   150
 Full point group                 C1      NOp   1
 Largest Abelian subgroup         C1      NOp   1
 Largest concise Abelian subgroup C1      NOp   1
                         Standard orientation:                         
 ---------------------------------------------------------------------
 Center     Atomic      Atomic             Coordinates (Angstroms)
 Number     Number       Type             X           Y           Z
 ---------------------------------------------------------------------
      1          9           0       -2.537153   -1.671596   -0.782718
      2          5           0       -3.380343   -1.037591    0.136743
      3          9           0       -2.988686   -1.382023    1.436602
      4          7           0       -4.851027   -1.466061   -0.112969
      5          6           0       -5.939746   -0.599346   -0.175345
      6          6           0       -5.736378    0.788733   -0.142365
      7          6           0       -4.466989    1.328532   -0.081514
      8          7           0       -3.329990    0.513743   -0.042907
      9          6           0       -2.235230    1.320822   -0.013244
     10          6           0       -2.667884    2.683765   -0.037410
     11          6           0       -4.045495    2.700971   -0.080343
     12          6           0       -4.947297    3.892080   -0.134251
     13          6           0       -0.895600    0.801580    0.013728
     14          6           0        0.203436    1.585867    0.166689
     15          6           0        1.588168    1.152103    0.202198
     16          6           0        1.988131   -0.184487    0.146952
     17          6           0        3.336357   -0.546163    0.206494
     18          7           0        3.579216   -1.953483    0.419780
     19          8           0        2.790515   -2.781188   -0.067976
     20          8           0        4.525894   -2.289837    1.149810
     21          6           0        4.389745    0.430579    0.215552
     22          7           0        5.706550    0.163141    0.031396
     23          6           0        6.249856   -1.050246   -0.614203
     24          6           0        7.544885   -0.570143   -1.274268
     25          6           0        8.021274    0.533197   -0.322358
     26          6           0        6.719370    1.245644    0.042436
     27          6           0        3.949931    1.780326    0.365304
     28          6           0        2.616762    2.118369    0.351996
     29          6           0       -7.112919   -1.370671   -0.309821
     30          6           0       -6.720326   -2.712479   -0.330719
     31          6           0       -5.323860   -2.730551   -0.205715
     32          1           0       -6.595008    1.450339   -0.183789
     33          1           0       -2.015438    3.545810   -0.042917
     34          1           0       -5.638309    3.906117    0.715814
     35          1           0       -4.366554    4.817139   -0.117526
     36          1           0       -5.557588    3.887805   -1.044178
     37          1           0       -0.792628   -0.271426   -0.105431
     38          1           0        0.064920    2.659280    0.278048
     39          1           0        1.257978   -0.983688    0.119246
     40          1           0        6.452480   -1.826668    0.129972
     41          1           0        5.525090   -1.452183   -1.328582
     42          1           0        8.263313   -1.384669   -1.391831
     43          1           0        7.333512   -0.150889   -2.263918
     44          1           0        8.477624    0.094296    0.571309
     45          1           0        8.742132    1.218006   -0.774444
     46          1           0        6.750211    1.733846    1.020260
     47          1           0        6.466575    2.002812   -0.710203
     48          1           0        4.686059    2.567550    0.452480
     49          1           0        2.341961    3.165484    0.442991
     50          1           0       -8.114935   -0.971575   -0.391748
     51          1           0       -7.355253   -3.582007   -0.428361
     52          1           0       -4.653529   -3.578917   -0.176376
 ---------------------------------------------------------------------
 Rotational constants (GHZ):           0.3470558           0.0548273           0.0484667
 Leave Link  202 at Sat Nov  8 11:02:50 2025, MaxMem= 30870077440 cpu:               0.2 elap:               0.0
 (Enter /public/software/gauss/g16/l301.exe)
 Standard basis: def2TZVPP (5D, 7F)
 Ernie: Thresh=  0.10000D-02 Tol=  0.10000D-05 Strict=F.
 There are  1431 symmetry adapted cartesian basis functions of A   symmetry.
 There are  1255 symmetry adapted basis functions of A   symmetry.
  1255 basis functions,  1938 primitive gaussians,  1431 cartesian basis functions
   110 alpha electrons      110 beta electrons
       nuclear repulsion energy      2849.6380388835 Hartrees.
 IExCor= 4336 DFT=T Ex+Corr=M062X ExCW=0 ScaHFX=  0.540000
 ScaDFX=  1.000000  1.000000  1.000000  1.000000 ScalE2=  1.000000  1.000000
 IRadAn=      5 IRanWt=     -1 IRanGd=            0 ICorTp=0 IEmpDi=131
 NAtoms=   52 NActive=   52 NUniq=   52 SFac= 1.00D+00 NAtFMM=   60 NAOKFM=F Big=F
 Integral buffers will be    131072 words long.
 Raffenetti 2 integral format.
 Two-electron integral symmetry is turned on.
 R6Disp:  Grimme-D3 Dispersion energy=       -0.0033428770 Hartrees.
 Nuclear repulsion after empirical dispersion term =     2849.6346960065 Hartrees.
 ------------------------------------------------------------------------------
 Polarizable Continuum Model (PCM)
 =================================
 Model                : PCM.
 Atomic radii         : UFF (Universal Force Field).
 Polarization charges : Total charges.
 Charge compensation  : None.
 Solution method      : On-the-fly selection.
 Cavity type          : Scaled VdW (van der Waals Surface) (Alpha=1.100).
 Cavity algorithm     : GePol (No added spheres)
                        Default sphere list used, NSphG=   52.
                        Lebedev-Laikov grids with approx.  5.0 points / Ang**2.
                        Smoothing algorithm: York/Karplus (Gamma=1.0000).
                        Polarization charges: spherical gaussians, with
                                              point-specific exponents (IZeta= 3).
                        Self-potential: point-specific (ISelfS= 7).
                        Self-field    : sphere-specific E.n sum rule (ISelfD= 2).
 Solvent              : Water, Eps=  78.355300 Eps(inf)=   1.777849
 ------------------------------------------------------------------------------
 GePol: Number of generator spheres                  =      52
 GePol: Total number of spheres                      =      52
 GePol: Number of exposed spheres                    =      52 (100.00%)
 GePol: Number of points                             =    3914
 GePol: Average weight of points                     =       0.13
 GePol: Minimum weight of points                     =   0.10D-11
 GePol: Maximum weight of points                     =    0.20577
 GePol: Number of points with low weight             =     300
 GePol: Fraction of low-weight points (<1% of avg)   =       7.66%
 GePol: Cavity surface area                          =    490.059 Ang**2
 GePol: Cavity volume                                =    549.729 Ang**3
 Leave Link  301 at Sat Nov  8 11:02:50 2025, MaxMem= 30870077440 cpu:               3.7 elap:               0.1
 (Enter /public/software/gauss/g16/l302.exe)
 NPDir=0 NMtPBC=     1 NCelOv=     1 NCel=       1 NClECP=     1 NCelD=      1
         NCelK=      1 NCelE2=     1 NClLst=     1 CellRange=     0.0.
 One-electron integrals computed using PRISM.
 One-electron integral symmetry used in STVInt
   1 Symmetry operations used in ECPInt.
 ECPInt:  NShTT=  109278 NPrTT=  311611 LenC2=   75575 LenP2D=  151104.
 LDataN:  DoStor=T MaxTD1= 6 Len=  172
 NBasis=  1255 RedAO= T EigKep=  7.18D-06  NBF=  1255
 NBsUse=  1255 1.00D-06 EigRej= -1.00D+00 NBFU=  1255
 Precomputing XC quadrature grid using
 IXCGrd= 4 IRadAn=           5 IRanWt=          -1 IRanGd=           0 AccXCQ= 0.00D+00.
 Generated NRdTot=       0 NPtTot=           0 NUsed=           0 NTot=          32
 NSgBfM=  1329  1329  1329  1329  1329 MxSgAt=    52 MxSgA2=    52.
 Leave Link  302 at Sat Nov  8 11:02:54 2025, MaxMem= 30870077440 cpu:             231.8 elap:               3.7
 (Enter /public/software/gauss/g16/l303.exe)
 DipDrv:  MaxL=1.
 Leave Link  303 at Sat Nov  8 11:02:54 2025, MaxMem= 30870077440 cpu:              13.6 elap:               0.3
 (Enter /public/software/gauss/g16/l401.exe)
 ExpMin= 6.06D-02 ExpMax= 3.55D+04 ExpMxC= 1.21D+03 IAcc=3 IRadAn=         5 AccDes= 0.00D+00
 Harris functional with IExCor= 1009 and IRadAn=       5 diagonalized for initial guess.
 HarFok:  IExCor= 1009 AccDes= 0.00D+00 IRadAn=         5 IDoV= 1 UseB2=F ITyADJ=14
 ICtDFT=  3500011 ScaDFX=  1.000000  1.000000  1.000000  1.000000
 FoFCou: FMM=F IPFlag=           0 FMFlag=      100000 FMFlg1=           0
         NFxFlg=           0 DoJE=T BraDBF=F KetDBF=T FulRan=T
         wScrn=  0.000000 ICntrl=       500 IOpCl=  0 I1Cent=   200000004 NGrid=           0
         NMat0=    1 NMatS0=      1 NMatT0=    0 NMatD0=    1 NMtDS0=    0 NMtDT0=    0
 Petite list used in FoFCou.
 Harris En= -1444.31198468208    
 JPrj=0 DoOrth=F DoCkMO=F.
 Leave Link  401 at Sat Nov  8 11:02:59 2025, MaxMem= 30870077440 cpu:             311.0 elap:               4.9
 (Enter /public/software/gauss/g16/l502.exe)
 Integral symmetry usage will be decided dynamically.
 Closed shell SCF:
 Using DIIS extrapolation, IDIIS=  1040.
 NGot= 30870077440 LenX= 30865878242 LenY= 30863829050
 Requested convergence on RMS density matrix=1.00D-08 within 128 cycles.
 Requested convergence on MAX density matrix=1.00D-06.
 Requested convergence on             energy=1.00D-06.
 No special actions if energy rises.
 Fock matrices will be formed incrementally for  20 cycles.

 Cycle   1  Pass 1  IDiag  1:
 FoFJK:  IHMeth= 1 ICntrl=       0 DoSepK=F KAlg= 0 I1Cent=           0 FoldK=F
 IRaf= 600000000 NMat=       1 IRICut=       1 DoRegI=T DoRafI=F ISym2E= 0 IDoP0=0 IntGTp=1.
 FoFCou: FMM=F IPFlag=           0 FMFlag=      100000 FMFlg1=           0
         NFxFlg=           0 DoJE=F BraDBF=F KetDBF=F FulRan=T
         wScrn=  0.000000 ICntrl=         0 IOpCl=  0 I1Cent=           0 NGrid=           0
         NMat0=    1 NMatS0=      1 NMatT0=    0 NMatD0=    1 NMtDS0=    0 NMtDT0=    0
 Symmetry not used in FoFCou.
 Inv3:  Mode=1 IEnd=    45958188.
 Iteration    1 A*A^-1 deviation from unit magnitude is 1.02D-14 for   1522.
 Iteration    1 A*A^-1 deviation from orthogonality  is 4.24D-15 for   2281   1522.
 Iteration    1 A^-1*A deviation from unit magnitude is 8.22D-15 for   1522.
 Iteration    1 A^-1*A deviation from orthogonality  is 2.20D-15 for   3908   2215.
 E= -1444.32828276195    
 DIIS: error= 1.66D-02 at cycle   1 NSaved=   1.
 NSaved= 1 IEnMin= 1 EnMin= -1444.32828276195     IErMin= 1 ErrMin= 1.66D-02
 ErrMax= 1.66D-02  0.00D+00 EMaxC= 1.00D-01 BMatC= 9.99D-01 BMatP= 9.99D-01
 IDIUse=3 WtCom= 8.34D-01 WtEn= 1.66D-01
 Coeff-Com:  0.100D+01
 Coeff-En:   0.100D+01
 Coeff:      0.100D+01
 Gap=     0.168 Goal=   None    Shift=    0.000
 GapD=    0.168 DampG=1.000 DampE=0.500 DampFc=0.5000 IDamp=-1.
 Damping current iteration by 5.00D-01
 RMSDP=1.62D-03 MaxDP=2.22D-01              OVMax= 1.87D-01

 Cycle   2  Pass 1  IDiag  1:
 RMSU=  8.07D-04    CP:  9.84D-01
 E= -1444.67399431333     Delta-E=       -0.345711551380 Rises=F Damp=T
 DIIS: error= 4.43D-03 at cycle   2 NSaved=   2.
 NSaved= 2 IEnMin= 2 EnMin= -1444.67399431333     IErMin= 2 ErrMin= 4.43D-03
 ErrMax= 4.43D-03  0.00D+00 EMaxC= 1.00D-01 BMatC= 1.05D-01 BMatP= 9.99D-01
 IDIUse=3 WtCom= 9.56D-01 WtEn= 4.43D-02
 Coeff-Com: -0.268D-01 0.103D+01
 Coeff-En:   0.000D+00 0.100D+01
 Coeff:     -0.256D-01 0.103D+01
 Gap=     0.190 Goal=   None    Shift=    0.000
 RMSDP=6.23D-04 MaxDP=4.37D-02 DE=-3.46D-01 OVMax= 1.42D-01

 Cycle   3  Pass 1  IDiag  1:
 RMSU=  6.00D-04    CP:  9.71D-01  1.20D+00
 E= -1445.02033809697     Delta-E=       -0.346343783641 Rises=F Damp=F
 DIIS: error= 5.71D-03 at cycle   3 NSaved=   3.
 NSaved= 3 IEnMin= 3 EnMin= -1445.02033809697     IErMin= 2 ErrMin= 4.43D-03
 ErrMax= 5.71D-03  0.00D+00 EMaxC= 1.00D-01 BMatC= 6.00D-02 BMatP= 1.05D-01
 IDIUse=3 WtCom= 9.43D-01 WtEn= 5.71D-02
 Coeff-Com: -0.105D+00 0.470D+00 0.635D+00
 Coeff-En:   0.000D+00 0.000D+00 0.100D+01
 Coeff:     -0.991D-01 0.443D+00 0.656D+00
 Gap=     0.146 Goal=   None    Shift=    0.000
 RMSDP=2.57D-04 MaxDP=2.34D-02 DE=-3.46D-01 OVMax= 4.92D-02

 Cycle   4  Pass 1  IDiag  1:
 RMSU=  2.04D-04    CP:  9.73D-01  1.33D+00  8.19D-01
 E= -1445.06037166419     Delta-E=       -0.040033567212 Rises=F Damp=F
 DIIS: error= 1.81D-03 at cycle   4 NSaved=   4.
 NSaved= 4 IEnMin= 4 EnMin= -1445.06037166419     IErMin= 4 ErrMin= 1.81D-03
 ErrMax= 1.81D-03  0.00D+00 EMaxC= 1.00D-01 BMatC= 8.13D-03 BMatP= 6.00D-02
 IDIUse=3 WtCom= 9.82D-01 WtEn= 1.81D-02
 Coeff-Com: -0.364D-01 0.977D-01 0.320D+00 0.619D+00
 Coeff-En:   0.000D+00 0.000D+00 0.810D-01 0.919D+00
 Coeff:     -0.358D-01 0.960D-01 0.315D+00 0.625D+00
 Gap=     0.146 Goal=   None    Shift=    0.000
 RMSDP=7.93D-05 MaxDP=1.20D-02 DE=-4.00D-02 OVMax= 1.37D-02

 Cycle   5  Pass 1  IDiag  1:
 RMSU=  4.85D-05    CP:  9.72D-01  1.30D+00  8.73D-01  7.69D-01
 E= -1445.06667729921     Delta-E=       -0.006305635025 Rises=F Damp=F
 DIIS: error= 2.78D-04 at cycle   5 NSaved=   5.
 NSaved= 5 IEnMin= 5 EnMin= -1445.06667729921     IErMin= 5 ErrMin= 2.78D-04
 ErrMax= 2.78D-04  0.00D+00 EMaxC= 1.00D-01 BMatC= 3.19D-04 BMatP= 8.13D-03
 IDIUse=3 WtCom= 9.97D-01 WtEn= 2.78D-03
 Coeff-Com: -0.977D-02 0.176D-01 0.104D+00 0.269D+00 0.619D+00
 Coeff-En:   0.000D+00 0.000D+00 0.000D+00 0.000D+00 0.100D+01
 Coeff:     -0.975D-02 0.176D-01 0.104D+00 0.268D+00 0.620D+00
 Gap=     0.147 Goal=   None    Shift=    0.000
 RMSDP=2.36D-05 MaxDP=5.06D-03 DE=-6.31D-03 OVMax= 6.06D-03

 Cycle   6  Pass 1  IDiag  1:
 RMSU=  2.09D-05    CP:  9.72D-01  1.31D+00  8.71D-01  7.91D-01  8.25D-01
 E= -1445.06693408839     Delta-E=       -0.000256789177 Rises=F Damp=F
 DIIS: error= 1.29D-04 at cycle   6 NSaved=   6.
 NSaved= 6 IEnMin= 6 EnMin= -1445.06693408839     IErMin= 6 ErrMin= 1.29D-04
 ErrMax= 1.29D-04  0.00D+00 EMaxC= 1.00D-01 BMatC= 3.78D-05 BMatP= 3.19D-04
 IDIUse=3 WtCom= 9.99D-01 WtEn= 1.29D-03
 Coeff-Com: -0.149D-02 0.470D-03 0.224D-01 0.718D-01 0.291D+00 0.616D+00
 Coeff-En:   0.000D+00 0.000D+00 0.000D+00 0.000D+00 0.000D+00 0.100D+01
 Coeff:     -0.149D-02 0.469D-03 0.224D-01 0.717D-01 0.291D+00 0.616D+00
 Gap=     0.148 Goal=   None    Shift=    0.000
 RMSDP=8.25D-06 MaxDP=8.43D-04 DE=-2.57D-04 OVMax= 2.62D-03

 Cycle   7  Pass 1  IDiag  1:
 RMSU=  7.36D-06    CP:  9.72D-01  1.31D+00  8.73D-01  7.94D-01  8.96D-01
                    CP:  9.65D-01
 E= -1445.06696879803     Delta-E=       -0.000034709637 Rises=F Damp=F
 DIIS: error= 6.43D-05 at cycle   7 NSaved=   7.
 NSaved= 7 IEnMin= 7 EnMin= -1445.06696879803     IErMin= 7 ErrMin= 6.43D-05
 ErrMax= 6.43D-05  0.00D+00 EMaxC= 1.00D-01 BMatC= 9.93D-06 BMatP= 3.78D-05
 IDIUse=1 WtCom= 1.00D+00 WtEn= 0.00D+00
 Coeff-Com:  0.146D-02-0.398D-02-0.108D-01-0.201D-01 0.306D-01 0.355D+00
 Coeff-Com:  0.647D+00
 Coeff:      0.146D-02-0.398D-02-0.108D-01-0.201D-01 0.306D-01 0.355D+00
 Coeff:      0.647D+00
 Gap=     0.148 Goal=   None    Shift=    0.000
 RMSDP=4.76D-06 MaxDP=6.29D-04 DE=-3.47D-05 OVMax= 1.85D-03

 Cycle   8  Pass 1  IDiag  1:
 RMSU=  3.29D-06    CP:  9.72D-01  1.31D+00  8.73D-01  7.99D-01  9.06D-01
                    CP:  1.11D+00  9.00D-01
 E= -1445.06698057219     Delta-E=       -0.000011774164 Rises=F Damp=F
 DIIS: error= 3.05D-05 at cycle   8 NSaved=   8.
 NSaved= 8 IEnMin= 8 EnMin= -1445.06698057219     IErMin= 8 ErrMin= 3.05D-05
 ErrMax= 3.05D-05  0.00D+00 EMaxC= 1.00D-01 BMatC= 1.01D-06 BMatP= 9.93D-06
 IDIUse=1 WtCom= 1.00D+00 WtEn= 0.00D+00
 Coeff-Com:  0.893D-03-0.181D-02-0.834D-02-0.214D-01-0.406D-01 0.359D-01
 Coeff-Com:  0.268D+00 0.768D+00
 Coeff:      0.893D-03-0.181D-02-0.834D-02-0.214D-01-0.406D-01 0.359D-01
 Coeff:      0.268D+00 0.768D+00
 Gap=     0.148 Goal=   None    Shift=    0.000
 RMSDP=2.28D-06 MaxDP=1.45D-04 DE=-1.18D-05 OVMax= 1.08D-03

 Cycle   9  Pass 1  IDiag  1:
 RMSU=  1.29D-06    CP:  9.72D-01  1.31D+00  8.73D-01  8.02D-01  9.20D-01
                    CP:  1.16D+00  1.07D+00  1.12D+00
 E= -1445.06698291017     Delta-E=       -0.000002337977 Rises=F Damp=F
 DIIS: error= 8.30D-06 at cycle   9 NSaved=   9.
 NSaved= 9 IEnMin= 9 EnMin= -1445.06698291017     IErMin= 9 ErrMin= 8.30D-06
 ErrMax= 8.30D-06  0.00D+00 EMaxC= 1.00D-01 BMatC= 1.38D-07 BMatP= 1.01D-06
 IDIUse=1 WtCom= 1.00D+00 WtEn= 0.00D+00
 Coeff-Com:  0.103D-03-0.688D-04-0.116D-02-0.430D-02-0.177D-01-0.307D-01
 Coeff-Com:  0.252D-03 0.248D+00 0.806D+00
 Coeff:      0.103D-03-0.688D-04-0.116D-02-0.430D-02-0.177D-01-0.307D-01
 Coeff:      0.252D-03 0.248D+00 0.806D+00
 Gap=     0.148 Goal=   None    Shift=    0.000
 RMSDP=1.01D-06 MaxDP=8.65D-05 DE=-2.34D-06 OVMax= 6.58D-04

 Cycle  10  Pass 1  IDiag  1:
 RMSU=  5.43D-07    CP:  9.72D-01  1.31D+00  8.73D-01  8.02D-01  9.20D-01
                    CP:  1.19D+00  1.10D+00  1.28D+00  1.23D+00
 E= -1445.06698335242     Delta-E=       -0.000000442257 Rises=F Damp=F
 DIIS: error= 5.11D-06 at cycle  10 NSaved=  10.
 NSaved=10 IEnMin=10 EnMin= -1445.06698335242     IErMin=10 ErrMin= 5.11D-06
 ErrMax= 5.11D-06  0.00D+00 EMaxC= 1.00D-01 BMatC= 4.05D-08 BMatP= 1.38D-07
 IDIUse=1 WtCom= 1.00D+00 WtEn= 0.00D+00
 Coeff-Com: -0.149D-03 0.355D-03 0.140D-02 0.312D-02 0.120D-02-0.190D-01
 Coeff-Com: -0.629D-01-0.843D-01 0.343D+00 0.817D+00
 Coeff:     -0.149D-03 0.355D-03 0.140D-02 0.312D-02 0.120D-02-0.190D-01
 Coeff:     -0.629D-01-0.843D-01 0.343D+00 0.817D+00
 Gap=     0.148 Goal=   None    Shift=    0.000
 RMSDP=5.46D-07 MaxDP=3.43D-05 DE=-4.42D-07 OVMax= 3.70D-04

 Cycle  11  Pass 1  IDiag  1:
 RMSU=  2.42D-07    CP:  9.72D-01  1.31D+00  8.73D-01  8.02D-01  9.20D-01
                    CP:  1.20D+00  1.12D+00  1.36D+00  1.47D+00  1.28D+00
 E= -1445.06698348009     Delta-E=       -0.000000127662 Rises=F Damp=F
 DIIS: error= 2.17D-06 at cycle  11 NSaved=  11.
 NSaved=11 IEnMin=11 EnMin= -1445.06698348009     IErMin=11 ErrMin= 2.17D-06
 ErrMax= 2.17D-06  0.00D+00 EMaxC= 1.00D-01 BMatC= 5.03D-09 BMatP= 4.05D-08
 IDIUse=1 WtCom= 1.00D+00 WtEn= 0.00D+00
 Coeff-Com: -0.535D-04 0.105D-03 0.589D-03 0.165D-02 0.284D-02 0.645D-03
 Coeff-Com: -0.178D-01-0.675D-01-0.145D-01 0.240D+00 0.854D+00
 Coeff:     -0.535D-04 0.105D-03 0.589D-03 0.165D-02 0.284D-02 0.645D-03
 Coeff:     -0.178D-01-0.675D-01-0.145D-01 0.240D+00 0.854D+00
 Gap=     0.148 Goal=   None    Shift=    0.000
 RMSDP=2.27D-07 MaxDP=1.17D-05 DE=-1.28D-07 OVMax= 1.69D-04

 Cycle  12  Pass 1  IDiag  1:
 RMSU=  9.89D-08    CP:  9.72D-01  1.31D+00  8.73D-01  8.02D-01  9.20D-01
                    CP:  1.20D+00  1.12D+00  1.39D+00  1.57D+00  1.47D+00
                    CP:  1.30D+00
 E= -1445.06698350069     Delta-E=       -0.000000020602 Rises=F Damp=F
 DIIS: error= 1.21D-06 at cycle  12 NSaved=  12.
 NSaved=12 IEnMin=12 EnMin= -1445.06698350069     IErMin=12 ErrMin= 1.21D-06
 ErrMax= 1.21D-06  0.00D+00 EMaxC= 1.00D-01 BMatC= 1.33D-09 BMatP= 5.03D-09
 IDIUse=1 WtCom= 1.00D+00 WtEn= 0.00D+00
 Coeff-Com:  0.126D-04-0.369D-04-0.696D-04-0.253D-04 0.546D-03 0.430D-02
 Coeff-Com:  0.624D-02-0.987D-02-0.674D-01-0.942D-01 0.307D+00 0.853D+00
 Coeff:      0.126D-04-0.369D-04-0.696D-04-0.253D-04 0.546D-03 0.430D-02
 Coeff:      0.624D-02-0.987D-02-0.674D-01-0.942D-01 0.307D+00 0.853D+00
 Gap=     0.148 Goal=   None    Shift=    0.000
 RMSDP=1.14D-07 MaxDP=7.62D-06 DE=-2.06D-08 OVMax= 8.72D-05

 Cycle  13  Pass 1  IDiag  1:
 RMSU=  4.36D-08    CP:  9.72D-01  1.31D+00  8.73D-01  8.02D-01  9.20D-01
                    CP:  1.20D+00  1.13D+00  1.40D+00  1.61D+00  1.58D+00
                    CP:  1.50D+00  1.27D+00
 E= -1445.06698350564     Delta-E=       -0.000000004954 Rises=F Damp=F
 DIIS: error= 4.66D-07 at cycle  13 NSaved=  13.
 NSaved=13 IEnMin=13 EnMin= -1445.06698350564     IErMin=13 ErrMin= 4.66D-07
 ErrMax= 4.66D-07  0.00D+00 EMaxC= 1.00D-01 BMatC= 2.87D-10 BMatP= 1.33D-09
 IDIUse=1 WtCom= 1.00D+00 WtEn= 0.00D+00
 Coeff-Com:  0.170D-04-0.378D-04-0.153D-03-0.354D-03-0.399D-03 0.192D-02
 Coeff-Com:  0.678D-02 0.935D-02-0.214D-01-0.985D-01-0.590D-01 0.337D+00
 Coeff-Com:  0.825D+00
 Coeff:      0.170D-04-0.378D-04-0.153D-03-0.354D-03-0.399D-03 0.192D-02
 Coeff:      0.678D-02 0.935D-02-0.214D-01-0.985D-01-0.590D-01 0.337D+00
 Coeff:      0.825D+00
 Gap=     0.148 Goal=   None    Shift=    0.000
 RMSDP=4.92D-08 MaxDP=4.67D-06 DE=-4.95D-09 OVMax= 3.48D-05

 Cycle  14  Pass 1  IDiag  1:
 RMSU=  1.69D-08    CP:  9.72D-01  1.31D+00  8.73D-01  8.02D-01  9.20D-01
                    CP:  1.20D+00  1.13D+00  1.40D+00  1.62D+00  1.62D+00
                    CP:  1.60D+00  1.47D+00  1.30D+00
 E= -1445.06698350688     Delta-E=       -0.000000001240 Rises=F Damp=F
 DIIS: error= 1.59D-07 at cycle  14 NSaved=  14.
 NSaved=14 IEnMin=14 EnMin= -1445.06698350688     IErMin=14 ErrMin= 1.59D-07
 ErrMax= 1.59D-07  0.00D+00 EMaxC= 1.00D-01 BMatC= 3.89D-11 BMatP= 2.87D-10
 IDIUse=1 WtCom= 1.00D+00 WtEn= 0.00D+00
 Coeff-Com:  0.389D-05-0.762D-05-0.422D-04-0.122D-03-0.255D-03 0.291D-04
 Coeff-Com:  0.147D-02 0.460D-02 0.597D-02-0.211D-01-0.707D-01-0.488D-02
 Coeff-Com:  0.293D+00 0.792D+00
 Coeff:      0.389D-05-0.762D-05-0.422D-04-0.122D-03-0.255D-03 0.291D-04
 Coeff:      0.147D-02 0.460D-02 0.597D-02-0.211D-01-0.707D-01-0.488D-02
 Coeff:      0.293D+00 0.792D+00
 Gap=     0.148 Goal=   None    Shift=    0.000
 RMSDP=1.37D-08 MaxDP=1.22D-06 DE=-1.24D-09 OVMax= 1.03D-05

 Cycle  15  Pass 1  IDiag  1:
 RMSU=  7.62D-09    CP:  9.72D-01  1.31D+00  8.73D-01  8.02D-01  9.20D-01
                    CP:  1.20D+00  1.13D+00  1.40D+00  1.62D+00  1.62D+00
                    CP:  1.62D+00  1.54D+00  1.46D+00  1.18D+00
 E= -1445.06698350681     Delta-E=        0.000000000068 Rises=F Damp=F
 DIIS: error= 7.36D-08 at cycle  15 NSaved=  15.
 NSaved=15 IEnMin=14 EnMin= -1445.06698350688     IErMin=15 ErrMin= 7.36D-08
 ErrMax= 7.36D-08  0.00D+00 EMaxC= 1.00D-01 BMatC= 1.14D-11 BMatP= 3.89D-11
 IDIUse=1 WtCom= 1.00D+00 WtEn= 0.00D+00
 Coeff-Com: -0.947D-06 0.255D-05 0.513D-05-0.562D-06-0.565D-04-0.293D-03
 Coeff-Com: -0.416D-03 0.388D-03 0.604D-02 0.539D-02-0.226D-01-0.556D-01
 Coeff-Com: -0.349D-01 0.371D+00 0.731D+00
 Coeff:     -0.947D-06 0.255D-05 0.513D-05-0.562D-06-0.565D-04-0.293D-03
 Coeff:     -0.416D-03 0.388D-03 0.604D-02 0.539D-02-0.226D-01-0.556D-01
 Coeff:     -0.349D-01 0.371D+00 0.731D+00
 Gap=     0.148 Goal=   None    Shift=    0.000
 RMSDP=6.88D-09 MaxDP=6.10D-07 DE= 6.82D-11 OVMax= 4.24D-06

 Error on total polarization charges =  0.02036
 SCF Done:  E(RM062X) =  -1445.06698351     A.U. after   15 cycles
            NFock= 15  Conv=0.69D-08     -V/T= 2.0053
 KE= 1.437443380288D+03 PE=-9.073587365996D+03 EE= 3.341442306195D+03
 Leave Link  502 at Sat Nov  8 11:12:07 2025, MaxMem= 30870077440 cpu:           34545.7 elap:             547.6
 (Enter /public/software/gauss/g16/l601.exe)
 Copying SCF densities to generalized density rwf, IOpCl= 0 IROHF=0.

 **********************************************************************

            Population analysis using the SCF density.

 **********************************************************************

 Orbital symmetries:
       Occupied  (A) (A) (A) (A) (A) (A) (A) (A) (A) (A) (A) (A)
                 (A) (A) (A) (A) (A) (A) (A) (A) (A) (A) (A) (A)
                 (A) (A) (A) (A) (A) (A) (A) (A) (A) (A) (A) (A)
                 (A) (A) (A) (A) (A) (A) (A) (A) (A) (A) (A) (A)
                 (A) (A) (A) (A) (A) (A) (A) (A) (A) (A) (A) (A)
                 (A) (A) (A) (A) (A) (A) (A) (A) (A) (A) (A) (A)
                 (A) (A) (A) (A) (A) (A) (A) (A) (A) (A) (A) (A)
                 (A) (A) (A) (A) (A) (A) (A) (A) (A) (A) (A) (A)
                 (A) (A) (A) (A) (A) (A) (A) (A) (A) (A) (A) (A)
                 (A) (A)
       Virtual   (A) (A) (A) (A) (A) (A) (A) (A) (A) (A) (A) (A)
                 (A) (A) (A) (A) (A) (A) (A) (A) (A) (A) (A) (A)
                 (A) (A) (A) (A) (A) (A) (A) (A) (A) (A) (A) (A)
                 (A) (A) (A) (A) (A) (A) (A) (A) (A) (A) (A) (A)
                 (A) (A) (A) (A) (A) (A) (A) (A) (A) (A) (A) (A)
                 (A) (A) (A) (A) (A) (A) (A) (A) (A) (A) (A) (A)
                 (A) (A) (A) (A) (A) (A) (A) (A) (A) (A) (A) (A)
                 (A) (A) (A) (A) (A) (A) (A) (A) (A) (A) (A) (A)
                 (A) (A) (A) (A) (A) (A) (A) (A) (A) (A) (A) (A)
                 (A) (A) (A) (A) (A) (A) (A) (A) (A) (A) (A) (A)
                 (A) (A) (A) (A) (A) (A) (A) (A) (A) (A) (A) (A)
                 (A) (A) (A) (A) (A) (A) (A) (A) (A) (A) (A) (A)
                 (A) (A) (A) (A) (A) (A) (A) (A) (A) (A) (A) (A)
                 (A) (A) (A) (A) (A) (A) (A) (A) (A) (A) (A) (A)
                 (A) (A) (A) (A) (A) (A) (A) (A) (A) (A) (A) (A)
                 (A) (A) (A) (A) (A) (A) (A) (A) (A) (A) (A) (A)
                 (A) (A) (A) (A) (A) (A) (A) (A) (A) (A) (A) (A)
                 (A) (A) (A) (A) (A) (A) (A) (A) (A) (A) (A) (A)
                 (A) (A) (A) (A) (A) (A) (A) (A) (A) (A) (A) (A)
                 (A) (A) (A) (A) (A) (A) (A) (A) (A) (A) (A) (A)
                 (A) (A) (A) (A) (A) (A) (A) (A) (A) (A) (A) (A)
                 (A) (A) (A) (A) (A) (A) (A) (A) (A) (A) (A) (A)
                 (A) (A) (A) (A) (A) (A) (A) (A) (A) (A) (A) (A)
                 (A) (A) (A) (A) (A) (A) (A) (A) (A) (A) (A) (A)
                 (A) (A) (A) (A) (A) (A) (A) (A) (A) (A) (A) (A)
                 (A) (A) (A) (A) (A) (A) (A) (A) (A) (A) (A) (A)
                 (A) (A) (A) (A) (A) (A) (A) (A) (A) (A) (A) (A)
                 (A) (A) (A) (A) (A) (A) (A) (A) (A) (A) (A) (A)
                 (A) (A) (A) (A) (A) (A) (A) (A) (A) (A) (A) (A)
                 (A) (A) (A) (A) (A) (A) (A) (A) (A) (A) (A) (A)
                 (A) (A) (A) (A) (A) (A) (A) (A) (A) (A) (A) (A)
                 (A) (A) (A) (A) (A) (A) (A) (A) (A) (A) (A) (A)
                 (A) (A) (A) (A) (A) (A) (A) (A) (A) (A) (A) (A)
                 (A) (A) (A) (A) (A) (A) (A) (A) (A) (A) (A) (A)
                 (A) (A) (A) (A) (A) (A) (A) (A) (A) (A) (A) (A)
                 (A) (A) (A) (A) (A) (A) (A) (A) (A) (A) (A) (A)
                 (A) (A) (A) (A) (A) (A) (A) (A) (A) (A) (A) (A)
                 (A) (A) (A) (A) (A) (A) (A) (A) (A) (A) (A) (A)
                 (A) (A) (A) (A) (A) (A) (A) (A) (A) (A) (A) (A)
                 (A) (A) (A) (A) (A) (A) (A) (A) (A) (A) (A) (A)
                 (A) (A) (A) (A) (A) (A) (A) (A) (A) (A) (A) (A)
                 (A) (A) (A) (A) (A) (A) (A) (A) (A) (A) (A) (A)
                 (A) (A) (A) (A) (A) (A) (A) (A) (A) (A) (A) (A)
                 (A) (A) (A) (A) (A) (A) (A) (A) (A) (A) (A) (A)
                 (A) (A) (A) (A) (A) (A) (A) (A) (A) (A) (A) (A)
                 (A) (A) (A) (A) (A) (A) (A) (A) (A) (A) (A) (A)
                 (A) (A) (A) (A) (A) (A) (A) (A) (A) (A) (A) (A)
                 (A) (A) (A) (A) (A) (A) (A) (A) (A) (A) (A) (A)
                 (A) (A) (A) (A) (A) (A) (A) (A) (A) (A) (A) (A)
                 (A) (A) (A) (A) (A) (A) (A) (A) (A) (A) (A) (A)
                 (A) (A) (A) (A) (A) (A) (A) (A) (A) (A) (A) (A)
                 (A) (A) (A) (A) (A) (A) (A) (A) (A) (A) (A) (A)
                 (A) (A) (A) (A) (A) (A) (A) (A) (A) (A) (A) (A)
                 (A) (A) (A) (A) (A) (A) (A) (A) (A) (A) (A) (A)
                 (A) (A) (A) (A) (A) (A) (A) (A) (A) (A) (A) (A)
                 (A) (A) (A) (A) (A) (A) (A) (A) (A) (A) (A) (A)
                 (A) (A) (A) (A) (A) (A) (A) (A) (A) (A) (A) (A)
                 (A) (A) (A) (A) (A) (A) (A) (A) (A) (A) (A) (A)
                 (A) (A) (A) (A) (A) (A) (A) (A) (A) (A) (A) (A)
                 (A) (A) (A) (A) (A) (A) (A) (A) (A) (A) (A) (A)
                 (A) (A) (A) (A) (A) (A) (A) (A) (A) (A) (A) (A)
                 (A) (A) (A) (A) (A) (A) (A) (A) (A) (A) (A) (A)
                 (A) (A) (A) (A) (A) (A) (A) (A) (A) (A) (A) (A)
                 (A) (A) (A) (A) (A) (A) (A) (A) (A) (A) (A) (A)
                 (A) (A) (A) (A) (A) (A) (A) (A) (A) (A) (A) (A)
                 (A) (A) (A) (A) (A) (A) (A) (A) (A) (A) (A) (A)
                 (A) (A) (A) (A) (A) (A) (A) (A) (A) (A) (A) (A)
                 (A) (A) (A) (A) (A) (A) (A) (A) (A) (A) (A) (A)
                 (A) (A) (A) (A) (A) (A) (A) (A) (A) (A) (A) (A)
                 (A) (A) (A) (A) (A) (A) (A) (A) (A) (A) (A) (A)
                 (A) (A) (A) (A) (A) (A) (A) (A) (A) (A) (A) (A)
                 (A) (A) (A) (A) (A) (A) (A) (A) (A) (A) (A) (A)
                 (A) (A) (A) (A) (A) (A) (A) (A) (A) (A) (A) (A)
                 (A) (A) (A) (A) (A) (A) (A) (A) (A) (A) (A) (A)
                 (A) (A) (A) (A) (A) (A) (A) (A) (A) (A) (A) (A)
                 (A) (A) (A) (A) (A) (A) (A) (A) (A) (A) (A) (A)
                 (A) (A) (A) (A) (A) (A) (A) (A) (A) (A) (A) (A)
                 (A) (A) (A) (A) (A) (A) (A) (A) (A) (A) (A) (A)
                 (A) (A) (A) (A) (A) (A) (A) (A) (A) (A) (A) (A)
                 (A) (A) (A) (A) (A) (A) (A) (A) (A) (A) (A) (A)
                 (A) (A) (A) (A) (A) (A) (A) (A) (A) (A) (A) (A)
                 (A) (A) (A) (A) (A) (A) (A) (A) (A) (A) (A) (A)
                 (A) (A) (A) (A) (A) (A) (A) (A) (A) (A) (A) (A)
                 (A) (A) (A) (A) (A) (A) (A) (A) (A) (A) (A) (A)
                 (A) (A) (A) (A) (A) (A) (A) (A) (A) (A) (A) (A)
                 (A) (A) (A) (A) (A) (A) (A) (A) (A) (A) (A) (A)
                 (A) (A) (A) (A) (A) (A) (A) (A) (A) (A) (A) (A)
                 (A) (A) (A) (A) (A) (A) (A) (A) (A) (A) (A) (A)
                 (A) (A) (A) (A) (A) (A) (A) (A) (A) (A) (A) (A)
                 (A) (A) (A) (A) (A) (A) (A) (A) (A) (A) (A) (A)
                 (A) (A) (A) (A) (A) (A) (A) (A) (A) (A) (A) (A)
                 (A) (A) (A) (A) (A) (A) (A) (A) (A) (A) (A) (A)
                 (A) (A) (A) (A) (A) (A) (A) (A) (A) (A) (A) (A)
                 (A) (A) (A) (A) (A) (A) (A) (A) (A) (A) (A) (A)
                 (A) (A) (A) (A) (A) (A) (A) (A) (A) (A) (A) (A)
                 (A) (A) (A) (A) (A)
 The electronic state is 1-A.
 Alpha  occ. eigenvalues --  -25.20717 -25.20480 -19.67305 -19.66960 -15.00685
 Alpha  occ. eigenvalues --  -14.79703 -14.78907 -14.78395 -10.63011 -10.61549
 Alpha  occ. eigenvalues --  -10.61378 -10.59052 -10.58949 -10.58692 -10.58318
 Alpha  occ. eigenvalues --  -10.58132 -10.57957 -10.57901 -10.57632 -10.57573
 Alpha  occ. eigenvalues --  -10.57055 -10.56809 -10.56142 -10.56014 -10.55405
 Alpha  occ. eigenvalues --  -10.55056 -10.54487 -10.54428 -10.54340 -10.54222
 Alpha  occ. eigenvalues --   -7.13422  -1.35858  -1.32541  -1.29291  -1.17330
 Alpha  occ. eigenvalues --   -1.10863  -1.09003  -1.08818  -0.99659  -0.94209
 Alpha  occ. eigenvalues --   -0.92362  -0.91548  -0.91374  -0.89281  -0.88249
 Alpha  occ. eigenvalues --   -0.85157  -0.84153  -0.81833  -0.80573  -0.80059
 Alpha  occ. eigenvalues --   -0.76865  -0.73271  -0.70913  -0.70303  -0.69035
 Alpha  occ. eigenvalues --   -0.67622  -0.67376  -0.67067  -0.65418  -0.64658
 Alpha  occ. eigenvalues --   -0.63333  -0.62335  -0.61939  -0.61346  -0.60719
 Alpha  occ. eigenvalues --   -0.60132  -0.58670  -0.58413  -0.57980  -0.56024
 Alpha  occ. eigenvalues --   -0.55348  -0.54078  -0.53605  -0.52645  -0.52491
 Alpha  occ. eigenvalues --   -0.51308  -0.51045  -0.50939  -0.50576  -0.50369
 Alpha  occ. eigenvalues --   -0.49270  -0.48870  -0.48730  -0.48058  -0.47353
 Alpha  occ. eigenvalues --   -0.47282  -0.46962  -0.46799  -0.46353  -0.45853
 Alpha  occ. eigenvalues --   -0.45749  -0.45003  -0.44142  -0.43468  -0.43050
 Alpha  occ. eigenvalues --   -0.42090  -0.41469  -0.41403  -0.40717  -0.40336
 Alpha  occ. eigenvalues --   -0.40315  -0.39042  -0.38469  -0.37395  -0.33973
 Alpha  occ. eigenvalues --   -0.33482  -0.32718  -0.31802  -0.27772  -0.24156
 Alpha virt. eigenvalues --   -0.09321  -0.06150  -0.02665   0.01620   0.04633
 Alpha virt. eigenvalues --    0.05909   0.06082   0.06797   0.07685   0.08302
 Alpha virt. eigenvalues --    0.08621   0.09658   0.09867   0.10030   0.10251
 Alpha virt. eigenvalues --    0.10632   0.10915   0.11185   0.11663   0.12169
 Alpha virt. eigenvalues --    0.12797   0.13158   0.13217   0.13506   0.13906
 Alpha virt. eigenvalues --    0.14374   0.14621   0.14898   0.15321   0.15655
 Alpha virt. eigenvalues --    0.16025   0.16409   0.16456   0.17076   0.17281
 Alpha virt. eigenvalues --    0.18099   0.18215   0.18656   0.19078   0.19660
 Alpha virt. eigenvalues --    0.19933   0.20097   0.20559   0.20919   0.21272
 Alpha virt. eigenvalues --    0.21444   0.22208   0.22246   0.22770   0.23157
 Alpha virt. eigenvalues --    0.23266   0.24121   0.24538   0.24592   0.24781
 Alpha virt. eigenvalues --    0.25007   0.25226   0.25785   0.26064   0.26396
 Alpha virt. eigenvalues --    0.27192   0.27306   0.27527   0.27871   0.28410
 Alpha virt. eigenvalues --    0.28754   0.29524   0.29802   0.30165   0.30396
 Alpha virt. eigenvalues --    0.30711   0.30873   0.31264   0.31717   0.32338
 Alpha virt. eigenvalues --    0.32935   0.33124   0.33575   0.33789   0.34464
 Alpha virt. eigenvalues --    0.34731   0.35030   0.35358   0.35592   0.36006
 Alpha virt. eigenvalues --    0.36371   0.36846   0.36988   0.37288   0.37652
 Alpha virt. eigenvalues --    0.38111   0.38313   0.38703   0.38948   0.39189
 Alpha virt. eigenvalues --    0.39569   0.39766   0.40249   0.40399   0.40783
 Alpha virt. eigenvalues --    0.41035   0.41520   0.42095   0.42578   0.42759
 Alpha virt. eigenvalues --    0.42986   0.43011   0.43244   0.43848   0.43855
 Alpha virt. eigenvalues --    0.44134   0.44305   0.44524   0.45176   0.45457
 Alpha virt. eigenvalues --    0.45581   0.45732   0.46147   0.46276   0.46701
 Alpha virt. eigenvalues --    0.46851   0.47508   0.47814   0.47926   0.48442
 Alpha virt. eigenvalues --    0.48566   0.48827   0.49094   0.49484   0.49792
 Alpha virt. eigenvalues --    0.50010   0.50029   0.50554   0.50824   0.51244
 Alpha virt. eigenvalues --    0.51711   0.52206   0.52489   0.52857   0.53349
 Alpha virt. eigenvalues --    0.53637   0.54006   0.54182   0.54647   0.55139
 Alpha virt. eigenvalues --    0.55458   0.56047   0.56450   0.56696   0.57112
 Alpha virt. eigenvalues --    0.57490   0.57589   0.58371   0.58864   0.59076
 Alpha virt. eigenvalues --    0.59549   0.59850   0.59939   0.60615   0.61004
 Alpha virt. eigenvalues --    0.61240   0.61505   0.62603   0.62934   0.63185
 Alpha virt. eigenvalues --    0.63791   0.64210   0.64564   0.64792   0.65167
 Alpha virt. eigenvalues --    0.65952   0.66217   0.66396   0.66928   0.67403
 Alpha virt. eigenvalues --    0.67773   0.68317   0.68444   0.68784   0.69026
 Alpha virt. eigenvalues --    0.69260   0.69833   0.70465   0.71072   0.71503
 Alpha virt. eigenvalues --    0.71683   0.72431   0.72555   0.73254   0.73616
 Alpha virt. eigenvalues --    0.73999   0.74755   0.75005   0.75219   0.75545
 Alpha virt. eigenvalues --    0.75924   0.76232   0.76726   0.77057   0.77440
 Alpha virt. eigenvalues --    0.77537   0.78450   0.79068   0.79517   0.79826
 Alpha virt. eigenvalues --    0.80287   0.80586   0.80990   0.81303   0.82385
 Alpha virt. eigenvalues --    0.82571   0.82844   0.83142   0.83473   0.84484
 Alpha virt. eigenvalues --    0.84791   0.85336   0.85448   0.86201   0.86562
 Alpha virt. eigenvalues --    0.86939   0.87178   0.88169   0.88379   0.88704
 Alpha virt. eigenvalues --    0.88909   0.89505   0.90241   0.90432   0.90700
 Alpha virt. eigenvalues --    0.91294   0.91517   0.92217   0.92374   0.92606
 Alpha virt. eigenvalues --    0.93343   0.93703   0.94475   0.94622   0.94920
 Alpha virt. eigenvalues --    0.95309   0.96230   0.96713   0.96807   0.97151
 Alpha virt. eigenvalues --    0.97764   0.98527   0.99343   0.99693   1.00120
 Alpha virt. eigenvalues --    1.00625   1.00640   1.00956   1.01320   1.01623
 Alpha virt. eigenvalues --    1.02287   1.02697   1.03056   1.03482   1.03736
 Alpha virt. eigenvalues --    1.04459   1.05187   1.05795   1.06136   1.06908
 Alpha virt. eigenvalues --    1.07246   1.08076   1.08695   1.08844   1.09020
 Alpha virt. eigenvalues --    1.09235   1.09811   1.10294   1.10892   1.11047
 Alpha virt. eigenvalues --    1.12123   1.12320   1.12569   1.13436   1.13868
 Alpha virt. eigenvalues --    1.14328   1.14464   1.14698   1.15536   1.15880
 Alpha virt. eigenvalues --    1.16017   1.16234   1.17186   1.17548   1.17784
 Alpha virt. eigenvalues --    1.18593   1.18722   1.19288   1.19486   1.20539
 Alpha virt. eigenvalues --    1.21078   1.21319   1.21710   1.22143   1.22846
 Alpha virt. eigenvalues --    1.22938   1.23595   1.24568   1.24890   1.25266
 Alpha virt. eigenvalues --    1.26140   1.26617   1.26904   1.27487   1.28170
 Alpha virt. eigenvalues --    1.28359   1.28847   1.29074   1.29355   1.30004
 Alpha virt. eigenvalues --    1.30494   1.30892   1.31558   1.32164   1.32571
 Alpha virt. eigenvalues --    1.32933   1.33316   1.34066   1.34393   1.34855
 Alpha virt. eigenvalues --    1.35203   1.35528   1.36226   1.36825   1.37031
 Alpha virt. eigenvalues --    1.37697   1.37928   1.38795   1.39488   1.39960
 Alpha virt. eigenvalues --    1.40882   1.41112   1.41563   1.42046   1.42285
 Alpha virt. eigenvalues --    1.43504   1.43871   1.44452   1.44820   1.45337
 Alpha virt. eigenvalues --    1.45640   1.46502   1.46711   1.46918   1.47442
 Alpha virt. eigenvalues --    1.47919   1.48539   1.48716   1.48893   1.49385
 Alpha virt. eigenvalues --    1.49590   1.50275   1.50737   1.50895   1.51542
 Alpha virt. eigenvalues --    1.51850   1.52270   1.52568   1.52809   1.52946
 Alpha virt. eigenvalues --    1.53339   1.53884   1.54209   1.54901   1.55506
 Alpha virt. eigenvalues --    1.55997   1.56426   1.56626   1.57116   1.57840
 Alpha virt. eigenvalues --    1.58206   1.58914   1.59299   1.59451   1.60521
 Alpha virt. eigenvalues --    1.60951   1.61742   1.62362   1.63091   1.63207
 Alpha virt. eigenvalues --    1.64356   1.64533   1.64870   1.65349   1.65542
 Alpha virt. eigenvalues --    1.65803   1.66415   1.67154   1.67814   1.68131
 Alpha virt. eigenvalues --    1.68699   1.69013   1.69600   1.69748   1.70395
 Alpha virt. eigenvalues --    1.71425   1.71597   1.72557   1.73030   1.73490
 Alpha virt. eigenvalues --    1.73582   1.74463   1.75091   1.76712   1.76962
 Alpha virt. eigenvalues --    1.77441   1.77906   1.78502   1.78852   1.80010
 Alpha virt. eigenvalues --    1.80221   1.80441   1.80695   1.81367   1.81987
 Alpha virt. eigenvalues --    1.82455   1.83251   1.84271   1.84456   1.84823
 Alpha virt. eigenvalues --    1.85697   1.86723   1.87445   1.87933   1.88235
 Alpha virt. eigenvalues --    1.88885   1.89255   1.89990   1.90480   1.90714
 Alpha virt. eigenvalues --    1.91632   1.93398   1.94938   1.95191   1.96331
 Alpha virt. eigenvalues --    1.97041   1.97188   1.97915   1.98408   2.00154
 Alpha virt. eigenvalues --    2.00683   2.01651   2.02399   2.02664   2.03429
 Alpha virt. eigenvalues --    2.04176   2.04641   2.06326   2.06673   2.07628
 Alpha virt. eigenvalues --    2.07678   2.07963   2.08677   2.08950   2.10080
 Alpha virt. eigenvalues --    2.10474   2.12247   2.12481   2.12994   2.13174
 Alpha virt. eigenvalues --    2.16045   2.16880   2.17433   2.17579   2.18260
 Alpha virt. eigenvalues --    2.19487   2.19817   2.20687   2.21466   2.22020
 Alpha virt. eigenvalues --    2.22291   2.23339   2.23804   2.23882   2.25216
 Alpha virt. eigenvalues --    2.26389   2.27381   2.27797   2.28654   2.29078
 Alpha virt. eigenvalues --    2.30949   2.31785   2.31979   2.32780   2.33439
 Alpha virt. eigenvalues --    2.34498   2.34625   2.35006   2.35517   2.36836
 Alpha virt. eigenvalues --    2.37859   2.38761   2.39361   2.39756   2.40813
 Alpha virt. eigenvalues --    2.41272   2.41809   2.42627   2.43971   2.44147
 Alpha virt. eigenvalues --    2.45230   2.45626   2.46728   2.48165   2.48511
 Alpha virt. eigenvalues --    2.48804   2.50320   2.50430   2.52163   2.52827
 Alpha virt. eigenvalues --    2.53544   2.54110   2.55044   2.55388   2.57191
 Alpha virt. eigenvalues --    2.57652   2.58956   2.59274   2.60455   2.60839
 Alpha virt. eigenvalues --    2.61550   2.61581   2.62073   2.62879   2.63217
 Alpha virt. eigenvalues --    2.63845   2.64494   2.64705   2.65420   2.66061
 Alpha virt. eigenvalues --    2.66290   2.67271   2.67531   2.67794   2.68129
 Alpha virt. eigenvalues --    2.69009   2.69398   2.70174   2.70475   2.71224
 Alpha virt. eigenvalues --    2.72043   2.72410   2.73052   2.73196   2.73645
 Alpha virt. eigenvalues --    2.74236   2.74813   2.75458   2.75741   2.76203
 Alpha virt. eigenvalues --    2.77321   2.77407   2.77728   2.78630   2.79269
 Alpha virt. eigenvalues --    2.79989   2.80325   2.81038   2.81528   2.81615
 Alpha virt. eigenvalues --    2.82344   2.82790   2.82965   2.83342   2.83647
 Alpha virt. eigenvalues --    2.84309   2.84812   2.85227   2.85936   2.86885
 Alpha virt. eigenvalues --    2.87221   2.87917   2.88743   2.89026   2.89450
 Alpha virt. eigenvalues --    2.89918   2.90098   2.90679   2.90793   2.91175
 Alpha virt. eigenvalues --    2.91772   2.92052   2.92763   2.93111   2.93437
 Alpha virt. eigenvalues --    2.93506   2.94304   2.94531   2.95119   2.95318
 Alpha virt. eigenvalues --    2.95832   2.96875   2.97080   2.97987   2.98170
 Alpha virt. eigenvalues --    2.98507   2.98824   2.99349   2.99415   2.99802
 Alpha virt. eigenvalues --    3.00431   3.00671   3.00945   3.01799   3.01859
 Alpha virt. eigenvalues --    3.02338   3.02615   3.02972   3.03537   3.03591
 Alpha virt. eigenvalues --    3.04024   3.04451   3.05142   3.05182   3.05479
 Alpha virt. eigenvalues --    3.06201   3.06931   3.07258   3.07478   3.07629
 Alpha virt. eigenvalues --    3.08216   3.08718   3.09381   3.09632   3.09858
 Alpha virt. eigenvalues --    3.10390   3.10492   3.11143   3.11781   3.11968
 Alpha virt. eigenvalues --    3.13048   3.13148   3.13404   3.13762   3.14233
 Alpha virt. eigenvalues --    3.14923   3.15393   3.15702   3.16272   3.17047
 Alpha virt. eigenvalues --    3.17509   3.17917   3.18120   3.18655   3.18806
 Alpha virt. eigenvalues --    3.19118   3.19566   3.19917   3.20199   3.20344
 Alpha virt. eigenvalues --    3.20847   3.21162   3.21695   3.21909   3.22134
 Alpha virt. eigenvalues --    3.22543   3.22948   3.23098   3.23930   3.24257
 Alpha virt. eigenvalues --    3.24611   3.24934   3.25156   3.26152   3.26719
 Alpha virt. eigenvalues --    3.26910   3.27507   3.27795   3.28033   3.28788
 Alpha virt. eigenvalues --    3.29130   3.29811   3.29828   3.30686   3.30971
 Alpha virt. eigenvalues --    3.31439   3.31724   3.32408   3.32758   3.33393
 Alpha virt. eigenvalues --    3.33787   3.34338   3.34630   3.34927   3.35648
 Alpha virt. eigenvalues --    3.35836   3.36833   3.37863   3.38700   3.38837
 Alpha virt. eigenvalues --    3.39318   3.39437   3.40008   3.41054   3.41594
 Alpha virt. eigenvalues --    3.41816   3.41992   3.42328   3.43276   3.43547
 Alpha virt. eigenvalues --    3.44488   3.44982   3.45137   3.45805   3.46260
 Alpha virt. eigenvalues --    3.46828   3.47416   3.48017   3.48340   3.49264
 Alpha virt. eigenvalues --    3.49627   3.49935   3.50880   3.51015   3.51090
 Alpha virt. eigenvalues --    3.51571   3.51926   3.52121   3.52656   3.53357
 Alpha virt. eigenvalues --    3.53920   3.54178   3.55297   3.55517   3.56466
 Alpha virt. eigenvalues --    3.56709   3.57199   3.57759   3.58379   3.59261
 Alpha virt. eigenvalues --    3.60352   3.60488   3.61341   3.61504   3.62006
 Alpha virt. eigenvalues --    3.62758   3.62980   3.63470   3.64169   3.64392
 Alpha virt. eigenvalues --    3.65192   3.65361   3.65888   3.66780   3.67068
 Alpha virt. eigenvalues --    3.67231   3.68143   3.68293   3.68793   3.69038
 Alpha virt. eigenvalues --    3.70364   3.70667   3.71203   3.71957   3.72034
 Alpha virt. eigenvalues --    3.72550   3.73250   3.73550   3.73920   3.74726
 Alpha virt. eigenvalues --    3.75216   3.76010   3.76419   3.76590   3.76791
 Alpha virt. eigenvalues --    3.76918   3.78098   3.78797   3.79265   3.79683
 Alpha virt. eigenvalues --    3.80351   3.80623   3.81141   3.81344   3.81667
 Alpha virt. eigenvalues --    3.83282   3.83679   3.83864   3.84250   3.84661
 Alpha virt. eigenvalues --    3.85044   3.85742   3.86141   3.86874   3.87287
 Alpha virt. eigenvalues --    3.88248   3.88744   3.88965   3.90216   3.90739
 Alpha virt. eigenvalues --    3.90949   3.91710   3.91975   3.92390   3.92873
 Alpha virt. eigenvalues --    3.93703   3.94139   3.94428   3.94976   3.95364
 Alpha virt. eigenvalues --    3.96123   3.96438   3.97354   3.97680   3.97983
 Alpha virt. eigenvalues --    3.98419   3.98702   3.99332   3.99771   4.00150
 Alpha virt. eigenvalues --    4.00500   4.01016   4.01922   4.02186   4.02830
 Alpha virt. eigenvalues --    4.03327   4.04066   4.04627   4.05003   4.05793
 Alpha virt. eigenvalues --    4.05960   4.06097   4.06957   4.07310   4.07616
 Alpha virt. eigenvalues --    4.08057   4.08993   4.09166   4.09696   4.10201
 Alpha virt. eigenvalues --    4.10425   4.11125   4.11368   4.12035   4.12508
 Alpha virt. eigenvalues --    4.13656   4.14380   4.14685   4.15262   4.15799
 Alpha virt. eigenvalues --    4.16004   4.16258   4.16799   4.17174   4.17343
 Alpha virt. eigenvalues --    4.18061   4.18268   4.19736   4.20161   4.20232
 Alpha virt. eigenvalues --    4.21519   4.21849   4.22210   4.22567   4.23140
 Alpha virt. eigenvalues --    4.23757   4.23907   4.24545   4.24889   4.25261
 Alpha virt. eigenvalues --    4.26479   4.26696   4.27555   4.28027   4.28574
 Alpha virt. eigenvalues --    4.29064   4.30879   4.31326   4.32159   4.33013
 Alpha virt. eigenvalues --    4.33193   4.33431   4.34794   4.35105   4.35922
 Alpha virt. eigenvalues --    4.35964   4.37271   4.38218   4.38320   4.38821
 Alpha virt. eigenvalues --    4.39669   4.40287   4.40974   4.41596   4.42313
 Alpha virt. eigenvalues --    4.42863   4.43504   4.44311   4.44813   4.45773
 Alpha virt. eigenvalues --    4.46480   4.47565   4.48071   4.49695   4.50049
 Alpha virt. eigenvalues --    4.50526   4.50905   4.52489   4.52576   4.53257
 Alpha virt. eigenvalues --    4.54810   4.55194   4.56127   4.57103   4.58729
 Alpha virt. eigenvalues --    4.59414   4.61257   4.61762   4.61900   4.62355
 Alpha virt. eigenvalues --    4.62911   4.63871   4.64402   4.65324   4.66065
 Alpha virt. eigenvalues --    4.67042   4.67940   4.68770   4.69703   4.70663
 Alpha virt. eigenvalues --    4.71410   4.72122   4.72515   4.73712   4.74108
 Alpha virt. eigenvalues --    4.74617   4.75115   4.75943   4.77742   4.78093
 Alpha virt. eigenvalues --    4.79000   4.79413   4.80298   4.81073   4.81583
 Alpha virt. eigenvalues --    4.83388   4.84366   4.86085   4.86917   4.87121
 Alpha virt. eigenvalues --    4.87451   4.88722   4.89691   4.90051   4.90384
 Alpha virt. eigenvalues --    4.90804   4.91795   4.92930   4.93515   4.94170
 Alpha virt. eigenvalues --    4.94331   4.95193   4.95602   4.96725   4.97279
 Alpha virt. eigenvalues --    4.98117   4.99602   5.00465   5.01203   5.02202
 Alpha virt. eigenvalues --    5.03323   5.03624   5.04264   5.04898   5.05857
 Alpha virt. eigenvalues --    5.06079   5.07446   5.08537   5.08826   5.09750
 Alpha virt. eigenvalues --    5.10098   5.11131   5.11757   5.12807   5.13720
 Alpha virt. eigenvalues --    5.14196   5.14362   5.14886   5.15488   5.16419
 Alpha virt. eigenvalues --    5.17094   5.17523   5.17986   5.18418   5.19148
 Alpha virt. eigenvalues --    5.19683   5.20397   5.21215   5.21971   5.23091
 Alpha virt. eigenvalues --    5.23323   5.23901   5.24567   5.25501   5.25763
 Alpha virt. eigenvalues --    5.26414   5.27340   5.27541   5.27727   5.27978
 Alpha virt. eigenvalues --    5.29221   5.30105   5.30969   5.31922   5.32290
 Alpha virt. eigenvalues --    5.32909   5.33376   5.34429   5.35109   5.35291
 Alpha virt. eigenvalues --    5.36393   5.36752   5.37602   5.38247   5.39324
 Alpha virt. eigenvalues --    5.39877   5.42012   5.42971   5.43060   5.43803
 Alpha virt. eigenvalues --    5.45665   5.46922   5.48289   5.48992   5.50507
 Alpha virt. eigenvalues --    5.51148   5.52295   5.53644   5.54548   5.55076
 Alpha virt. eigenvalues --    5.55669   5.55710   5.57838   5.58292   5.59172
 Alpha virt. eigenvalues --    5.59426   5.60858   5.61932   5.62734   5.63424
 Alpha virt. eigenvalues --    5.64263   5.65397   5.66507   5.67462   5.68695
 Alpha virt. eigenvalues --    5.70227   5.71904   5.73384   5.74875   5.77006
 Alpha virt. eigenvalues --    5.78164   5.79053   5.80688   5.83514   5.86821
 Alpha virt. eigenvalues --    5.90157   5.91260   5.92812   5.94528   5.95782
 Alpha virt. eigenvalues --    5.97675   5.98975   6.02842   6.04995   6.07627
 Alpha virt. eigenvalues --    6.12845   6.22490   6.27622   6.30287   6.35766
 Alpha virt. eigenvalues --    6.37366   6.42214   6.44745   6.48244   6.51675
 Alpha virt. eigenvalues --    6.54895   6.72465   6.84448   6.86517   6.88180
 Alpha virt. eigenvalues --    6.93824   6.94090   6.96750   6.97501   6.98944
 Alpha virt. eigenvalues --    6.99589   7.05068   7.07330   7.10714   7.17011
 Alpha virt. eigenvalues --    7.21043   7.22266   7.23576   7.24989   7.26736
 Alpha virt. eigenvalues --    7.33693   7.34618   7.40345   7.46605   8.43447
 Alpha virt. eigenvalues --    8.45558   8.53855   8.57047   8.81610   8.84397
 Alpha virt. eigenvalues --    8.88900   8.90659   8.91261   8.98640  15.84507
 Alpha virt. eigenvalues --   22.87928  22.97564  23.03593  23.12631  23.14240
 Alpha virt. eigenvalues --   23.22361  23.26461  23.28240  23.29712  23.32182
 Alpha virt. eigenvalues --   23.36981  23.40714  23.42613  23.51336  23.51734
 Alpha virt. eigenvalues --   23.52979  23.55400  23.61035  23.71476  23.81350
 Alpha virt. eigenvalues --   23.89621  24.03437  32.57066  33.07043  33.20040
 Alpha virt. eigenvalues --   33.37385  44.17618  44.22384  57.27064  57.48446
          Condensed to atoms (all electrons):
 Mulliken charges:
               1
     1  F   -0.363349
     2  B    0.380327
     3  F   -0.347683
     4  N   -0.100359
     5  C   -0.012693
     6  C   -0.031370
     7  C    0.065208
     8  N   -0.106855
     9  C    0.042679
    10  C   -0.074533
    11  C   -0.060518
    12  C   -0.414694
    13  C   -0.101560
    14  C   -0.056790
    15  C   -0.058503
    16  C   -0.063037
    17  C   -0.094090
    18  N    0.453753
    19  O   -0.381146
    20  O   -0.366315
    21  C    0.229197
    22  N   -0.106883
    23  C   -0.203291
    24  C   -0.242839
    25  C   -0.264497
    26  C   -0.181986
    27  C   -0.188904
    28  C   -0.122419
    29  C   -0.148629
    30  C   -0.247625
    31  C   -0.063569
    32  H    0.173626
    33  H    0.172524
    34  H    0.156517
    35  H    0.126820
    36  H    0.156375
    37  H    0.134497
    38  H    0.115829
    39  H    0.168387
    40  H    0.171576
    41  H    0.162792
    42  H    0.129726
    43  H    0.131490
    44  H    0.135198
    45  H    0.130317
    46  H    0.162491
    47  H    0.158334
    48  H    0.164456
    49  H    0.147146
    50  H    0.181979
    51  H    0.173850
    52  H    0.179044
 Sum of Mulliken charges =  -0.00000
 Mulliken charges with hydrogens summed into heavy atoms:
               1
     1  F   -0.363349
     2  B    0.380327
     3  F   -0.347683
     4  N   -0.100359
     5  C   -0.012693
     6  C    0.142255
     7  C    0.065208
     8  N   -0.106855
     9  C    0.042679
    10  C    0.097991
    11  C   -0.060518
    12  C    0.025018
    13  C    0.032937
    14  C    0.059039
    15  C   -0.058503
    16  C    0.105351
    17  C   -0.094090
    18  N    0.453753
    19  O   -0.381146
    20  O   -0.366315
    21  C    0.229197
    22  N   -0.106883
    23  C    0.131076
    24  C    0.018377
    25  C    0.001019
    26  C    0.138839
    27  C   -0.024448
    28  C    0.024727
    29  C    0.033350
    30  C   -0.073775
    31  C    0.115474
 Electronic spatial extent (au):  <R**2>=          20672.6288
 Charge=              0.0000 electrons
 Dipole moment (field-independent basis, Debye):
    X=              3.9127    Y=             12.0440    Z=             -2.6952  Tot=             12.9472
 Quadrupole moment (field-independent basis, Debye-Ang):
   XX=            -90.1320   YY=           -167.5190   ZZ=           -190.3116
   XY=              5.2902   XZ=             -5.6612   YZ=              5.3132
 Traceless Quadrupole moment (field-independent basis, Debye-Ang):
   XX=             59.1888   YY=            -18.1981   ZZ=            -40.9907
   XY=              5.2902   XZ=             -5.6612   YZ=              5.3132
 Octapole moment (field-independent basis, Debye-Ang**2):
  XXX=            173.7357  YYY=             66.5213  ZZZ=             -1.5873  XYY=            -82.7527
  XXY=            155.7705  XXZ=            -93.5358  XZZ=             39.5669  YZZ=             -3.3335
  YYZ=             -5.8666  XYZ=             16.9125
 Hexadecapole moment (field-independent basis, Debye-Ang**3):
 XXXX=         -18101.2572 YYYY=          -3365.4269 ZZZZ=           -490.9397 XXXY=            118.3016
 XXXZ=           -240.8692 YYYX=            137.3717 YYYZ=             24.8712 ZZZX=            -34.5435
 ZZZY=            -10.2453 XXYY=          -4142.4824 XXZZ=          -4250.6281 YYZZ=           -733.6157
 XXYZ=            129.0919 YYXZ=             -6.3811 ZZXY=            -44.2726
 N-N= 2.849634696006D+03 E-N=-9.073587398690D+03  KE= 1.437443380288D+03
 No NMR shielding tensors so no spin-rotation constants.
 Leave Link  601 at Sat Nov  8 11:12:09 2025, MaxMem= 30870077440 cpu:              83.3 elap:               1.5
 (Enter /public/software/gauss/g16/l9999.exe)
 1\1\GINC-CU303\SP\RM062X\def2TZVPP\C22H21B1F2N4O2\BAIDING\08-Nov-2025\
 0\\#p M062X/DEF2TZVPP scrf=(solvent=water) em=GD3\\Energy calculation 
 for M99949116\\0,1\F,0,-2.537153,-1.671596,-0.782718\B,0,-3.380343,-1.
 037591,0.136743\F,0,-2.988686,-1.382023,1.436602\N,0,-4.851027,-1.4660
 61,-0.112969\C,0,-5.939746,-0.599346,-0.175345\C,0,-5.736378,0.788733,
 -0.142365\C,0,-4.466989,1.328532,-0.081514\N,0,-3.32999,0.513743,-0.04
 2907\C,0,-2.23523,1.320822,-0.013244\C,0,-2.667884,2.683765,-0.03741\C
 ,0,-4.045495,2.700971,-0.080343\C,0,-4.947297,3.89208,-0.134251\C,0,-0
 .8956,0.80158,0.013728\C,0,0.203436,1.585867,0.166689\C,0,1.588168,1.1
 52103,0.202198\C,0,1.988131,-0.184487,0.146952\C,0,3.336357,-0.546163,
 0.206494\N,0,3.579216,-1.953483,0.41978\O,0,2.790515,-2.781188,-0.0679
 76\O,0,4.525894,-2.289837,1.14981\C,0,4.389745,0.430579,0.215552\N,0,5
 .70655,0.163141,0.031396\C,0,6.249856,-1.050246,-0.614203\C,0,7.544885
 ,-0.570143,-1.274268\C,0,8.021274,0.533197,-0.322358\C,0,6.71937,1.245
 644,0.042436\C,0,3.949931,1.780326,0.365304\C,0,2.616762,2.118369,0.35
 1996\C,0,-7.112919,-1.370671,-0.309821\C,0,-6.720326,-2.712479,-0.3307
 19\C,0,-5.32386,-2.730551,-0.205715\H,0,-6.595008,1.450339,-0.183789\H
 ,0,-2.015438,3.54581,-0.042917\H,0,-5.638309,3.906117,0.715814\H,0,-4.
 366554,4.817139,-0.117526\H,0,-5.557588,3.887805,-1.044178\H,0,-0.7926
 28,-0.271426,-0.105431\H,0,0.06492,2.65928,0.278048\H,0,1.257978,-0.98
 3688,0.119246\H,0,6.45248,-1.826668,0.129972\H,0,5.52509,-1.452183,-1.
 328582\H,0,8.263313,-1.384669,-1.391831\H,0,7.333512,-0.150889,-2.2639
 18\H,0,8.477624,0.094296,0.571309\H,0,8.742132,1.218006,-0.774444\H,0,
 6.750211,1.733846,1.02026\H,0,6.466575,2.002812,-0.710203\H,0,4.686059
 ,2.56755,0.45248\H,0,2.341961,3.165484,0.442991\H,0,-8.114935,-0.97157
 5,-0.391748\H,0,-7.355253,-3.582007,-0.428361\H,0,-4.653529,-3.578917,
 -0.176376\\Version=ES64L-G16RevA.03\State=1-A\HF=-1445.0669835\RMSD=6.
 883e-09\Dipole=1.5393562,4.7384754,-1.0603687\Quadrupole=44.0054583,-1
 3.529874,-30.4755843,3.9331432,-4.2089333,3.9502089\PG=C01 [X(C22H21B1
 F2N4O2)]\\@


 I WANT IT ALL - RICH, THIN, AND CHOCOLATE.
 Job cpu time:       0 days  9 hours 47 minutes 14.2 seconds.
 Elapsed time:       0 days  0 hours  9 minutes 18.9 seconds.
 File lengths (MBytes):  RWF=   1072 Int=      0 D2E=      0 Chk=     93 Scr=      1
 Normal termination of Gaussian 16 at Sat Nov  8 11:12:09 2025.
